<?xml version="1.0"?>
<VTKFile type="StructuredGrid"  version="0.1" byte_order="LittleEndian" compressor="vtkZLibDataCompressor">
  <StructuredGrid WholeExtent="0 20 0 5 0 40">
    <Piece Extent="0 20 0 5 0 40">
      <PointData Vectors="velocity">
        <DataArray type="Float64" Name="velocity" NumberOfComponents="3" format="ascii">
-3.17e-10 0 0
-2.85382e-10 0 0
-2.54149e-10 0 0
-2.2235e-10 0 0
-1.90371e-10 0 0
-1.589e-10 0 0
-1.26958e-10 0 0
-9.47421e-11 0 0
-6.35016e-11 0 0
-3.14622e-11 0 0
-3.56206e-14 0 0
3.14458e-11 0 0
6.30566e-11 0 0
9.48537e-11 0 0
1.26562e-10 0 0
1.58362e-10 0 0
1.90364e-10 0 0
2.22011e-10 0 0
2.53466e-10 0 0
2.85045e-10 0 0
3.17e-10 0 0
-3.17e-10 -1.02445e-11 0
-2.85493e-10 -1.04336e-11 0
-2.53597e-10 -1.05435e-11 0
-2.22236e-10 -1.06331e-11 0
-1.90332e-10 -1.04506e-11 0
-1.58526e-10 -1.03479e-11 0
-1.26911e-10 -1.04485e-11 0
-9.52974e-11 -1.06402e-11 0
-6.31542e-11 -1.02993e-11 0
-3.16521e-11 -1.04565e-11 0
1.26425e-13 -1.06245e-11 0
3.17709e-11 -1.03575e-11 0
6.34839e-11 -1.02521e-11 0
9.49535e-11 -1.05637e-11 0
1.26656e-10 -1.03727e-11 0
1.58336e-10 -1.02131e-11 0
1.90159e-10 -1.04618e-11 0
2.21942e-10 -1.05957e-11 0
2.53579e-10 -1.05066e-11 0
2.85284e-10 -1.06367e-11 0
3.17e-10 -1.0354e-11 0
-3.17e-10 -2.08075e-11 0
-2.85267e-10 -2.1152e-11 0
-2.53782e-10 -2.12998e-11 0
-2.22095e-10 -2.09541e-11 0
-1.89919e-10 -2.10615e-11 0
-1.58697e-10 -2.09275e-11 0
-1.26825e-10 -2.11252e-11 0
-9.51192e-11 -2.10616e-11 0
-6.34418e-11 -2.09909e-11 0
-3.14574e-11 -2.09087e-11 0
6.87229e-14 -2.13144e-11 0
3.18075e-11 -2.08377e-11 0
6.32422e-11 -2.10572e-11 0
9.51487e-11 -2.08501e-11 0
1.26952e-10 -2.07491e-11 0
1.58371e-10 -2.06805e-11 0
1.90401e-10 -2.11902e-11 0
2.21622e-10 -2.08665e-11 0
2.53695e-10 -2.14771e-11 0
2.85132e-10 -2.09358e-11 0
3.17e-10 -2.15862e-11 0
-3.17e-10 -3.11905e-11 0
-2.85684e-10 -3.15108e-11 0
-2.53634e-10 -3.16333e-11 0
-2.21923e-10 -3.15438e-11 0
-1.90426e-10 -3.12969e-11 0
-1.58398e-10 -3.15282e-11 0
-1.26912e-10 -3.16348e-11 0
-9.50474e-11 -3.16068e-11 0
-6.31945e-11 -3.1349e-11 0
-3.13823e-11 -3.09876e-11 0
1.16858e-13 -3.14401e-11 0
3.17942e-11 -3.1189e-11 0
6.38206e-11 -3.14051e-11 0
9.52984e-11 -3.13966e-11 0
1.27102e-10 -3.13892e-11 0
1.58565e-10 -3.14793e-11 0
1.90258e-10 -3.14495e-11 0
2.21963e-10 -3.14465e-11 0
2.53922e-10 -3.14251e-11 0
2.8538e-10 -3.16801e-11 0
3.17e-10 -3.1702e-11 0
-3.17e-10 -4.1804e-11 0
-2.85221e-10 -4.23504e-11 0
-2.53838e-10 -4.22732e-11 0
-2.21936e-10 -4.17395e-11 0
-1.90475e-10 -4.19007e-11 0
-1.58944e-10 -4.18401e-11 0
-1.26972e-10 -4.21977e-11 0
-9.53758e-11 -4.2018e-11 0
-6.34828e-11 -4.22121e-11 0
-3.15769e-11 -4.18397e-11 0
4.52368e-14 -4.21887e-11 0
3.18376e-11 -4.18053e-11 0
6.34853e-11 -4.20865e-11 0
9.51963e-11 -4.18803e-11 0
1.26933e-10 -4.1833e-11 0
1.58569e-10 -4.20037e-11 0
1.90376e-10 -4.22935e-11 0
2.22112e-10 -4.21298e-11 0
2.53515e-10 -4.20313e-11 0
2.85313e-10 -4.22539e-11 0
3.17e-10 -4.22707e-11 0
-3.17e-10 -5.2665e-11 0
-2.8484e-10 -5.30544e-11 0
-2.53443e-10 -5.26703e-11 0
-2.22084e-10 -5.22889e-11 0
-1.90242e-10 -5.22173e-11 0
-1.58558e-10 -5.22669e-11 0
-1.26963e-10 -5.27522e-11 0
-9.51638e-11 -5.25712e-11 0
-6.3403e-11 -5.26952e-11 0
-3.1922e-11 -5.23313e-11 0
-5.09524e-14 -5.23834e-11 0
3.16426e-11 -5.25014e-11 0
6.40422e-11 -5.28869e-11 0
9.52223e-11 -5.26909e-11 0
1.26891e-10 -5.21939e-11 0
1.58972e-10 -5.25461e-11 0
1.90677e-10 -5.26862e-11 0
2.22023e-10 -5.27688e-11 0
2.53672e-10 -5.25352e-11 0
2.84937e-10 -5.29306e-11 0
3.17e-10 -5.24584e-11 0
-3.17e-10 0 1.77864e-14
-2.85325e-10 0 -3.41444e-14
-2.53564e-10 0 2.22999e-14
-2.21679e-10 0 1.19119e-14
-1.90032e-10 0 1.30585e-14
-1.58567e-10 0 2.77783e-14
-1.26764e-10 0 -1.32046e-14
-9.5547e-11 0 -1.4791e-14
-6.29029e-11 0 6.12162e-15
-3.21612e-11 0 -4.57518e-14
-3.72473e-14 0 -6.89801e-14
3.18445e-11 0 -5.86059e-14
6.30865e-11 0 2.67563e-14
9.51558e-11 0 5.70258e-14
1.27172e-10 0 3.11407e-14
1.58428e-10 0 3.84602e-15
1.89886e-10 0 -2.71163e-14
2.2174e-10 0 -9.66361e-15
2.54002e-10 0 8.85772e-15
2.85353e-10 0 2.18158e-14
3.17e-10 0 -2.23345e-14
-3.17e-10 -1.02043e-11 1.26412e-14
-2.8529e-10 -1.06205e-11 2.68418e-14
-2.53526e-10 -1.05201e-11 3.93383e-16
-2.21739e-10 -1.0597e-11 -2.2899e-14
-1.90258e-10 -1.05066e-11 2.95819e-15
-1.58538e-10 -1.06719e-11 -5.46913e-15
-1.26929e-10 -1.02501e-11 8.62179e-15
-9.49481e-11 -1.06543e-11 3.39824e-15
-6.36372e-11 -1.04321e-11 -1.32425e-14
-3.16276e-11 -1.036e-11 -3.00757e-14
6.73398e-14 -1.03117e-11 -1.02675e-14
3.18775e-11 -1.0459e-11 -5.81199e-16
6.34671e-11 -1.04753e-11 6.79301e-15
9.51348e-11 -1.03467e-11 1.96085e-15
1.26886e-10 -1.04377e-11 -8.47436e-15
1.58449e-10 -1.03345e-11 -2.03516e-14
1.90145e-10 -1.06622e-11 -1.20656e-14
2.21865e-10 -1.07272e-11 -1.01014e-14
2.53587e-10 -1.06924e-11 4.37595e-15
2.85237e-10 -1.05659e-11 -3.34922e-15
3.17e-10 -1.09744e-11 -3.1739e-14
-3.17e-10 -2.08029e-11 7.79808e-15
-2.85061e-10 -2.10151e-11 1.98655e-14
-2.53569e-10 -2.11029e-11 1.65385e-14
-2.21864e-10 -2.07733e-11 -1.8213e-14
-1.90272e-10 -2.10228e-11 -2.3978e-14
-1.58635e-10 -2.0771e-11 -2.56379e-14
-1.26793e-10 -2.09335e-11 1.69438e-14
-9.51883e-11 -2.09906e-11 2.3095e-14
-6.33161e-11 -2.09887e-11 -3.30935e-14
-3.16513e-11 -2.07752e-11 1.5037e-14
6.34399e-14 -2.09672e-11 1.9374e-14
3.17861e-11 -2.07083e-11 -1.39314e-14
6.3273e-11 -2.08463e-11 -2.10315e-14
9.51406e-11 -2.09945e-11 -2.64878e-14
1.26598e-10 -2.09631e-11 -6.68916e-15
1.58472e-10 -2.07312e-11 2.04836e-14
1.90264e-10 -2.11059e-11 7.61321e-15
2.22047e-10 -2.09013e-11 8.418e-15
2.53384e-10 -2.11858e-11 3.4475e-14
2.85354e-10 -2.10536e-11 -7.29651e-15
3.17e-10 -2.1226e-11 -1.53544e-14
-3.17e-10 -3.16845e-11 -1.3707e-14
-2.85285e-10 -3.17237e-11 8.89921e-15
-2.53557e-10 -3.13954e-11 7.60398e-16
-2.22197e-10 -3.16196e-11 8.45079e-15
-1.90289e-10 -3.15453e-11 -1.01668e-14
-1.58719e-10 -3.16482e-11 1.3933e-14
-1.26873e-10 -3.13074e-11 1.78106e-14
-9.52216e-11 -3.15116e-11 -1.23392e-14
-6.36834e-11 -3.13898e-11 -1.25522e-14
-3.19291e-11 -3.15631e-11 3.25756e-14
-1.42e-14 -3.10941e-11 1.35507e-14
3.17269e-11 -3.1303e-11 -1.57553e-14
6.34608e-11 -3.12463e-11 -1.43909e-14
9.51889e-11 -3.1445e-11 9.1539e-15
1.27045e-10 -3.11743e-11 -4.49954e-15
1.58732e-10 -3.12382e-11 1.77699e-14
1.90516e-10 -3.16101e-11 2.11171e-14
2.21968e-10 -3.15903e-11 4.64295e-15
2.53629e-10 -3.19004e-11 -1.1401e-14
2.8522e-10 -3.17446e-11 2.76863e-14
3.17e-10 -3.18405e-11 2.01398e-14
-3.17e-10 -4.17267e-11 5.83694e-14
-2.85573e-10 -4.21695e-11 -3.60487e-14
-2.53591e-10 -4.22877e-11 -1.50183e-14
-2.22114e-10 -4.1862e-11 -1.23648e-14
-1.90344e-10 -4.19127e-11 -2.00808e-14
-1.58758e-10 -4.19195e-11 3.59899e-14
-1.2719e-10 -4.19443e-11 2.71106e-14
-9.53621e-11 -4.2052e-11 -1.61641e-14
-6.38617e-11 -4.22553e-11 1.75644e-14
-3.16441e-11 -4.18887e-11 3.41852e-14
-7.12242e-14 -4.18559e-11 9.40021e-15
3.16334e-11 -4.17977e-11 4.12571e-14
6.36242e-11 -4.20023e-11 3.09593e-14
9.51872e-11 -4.20467e-11 1.25109e-14
1.26811e-10 -4.19053e-11 5.26077e-15
1.58759e-10 -4.1919e-11 -1.93279e-14
1.90413e-10 -4.19895e-11 3.04046e-14
2.22095e-10 -4.20995e-11 2.07722e-14
2.53657e-10 -4.21609e-11 1.91871e-14
2.85339e-10 -4.20946e-11 -2.52874e-15
3.17e-10 -4.16842e-11 -2.00658e-14
-3.17e-10 -5.27283e-11 4.05882e-14
-2.85175e-10 -5.22752e-11 -2.38083e-14
-2.53807e-10 -5.28005e-11 -2.19588e-14
-2.22146e-10 -5.26279e-11 1.61648e-14
-1.90619e-10 -5.21537e-11 -4.93412e-14
-1.58904e-10 -5.29183e-11 1.31063e-14
-1.27152e-10 -5.23417e-11 1.7388e-14
-9.53515e-11 -5.278e-11 -2.23775e-15
-6.3639e-11 -5.25983e-11 3.77229e-14
-3.20528e-11 -5.26408e-11 2.63924e-14
-7.82068e-14 -5.19796e-11 -6.9528e-15
3.173e-11 -5.23946e-11 2.83653e-14
6.37325e-11 -5.25389e-11 -1.94818e-15
9.5091e-11 -5.22447e-11 4.53047e-14
1.27213e-10 -5.23655e-11 3.25215e-14
1.58889e-10 -5.25484e-11 -2.30016e-14
1.90425e-10 -5.24914e-11 -1.78023e-14
2.22068e-10 -5.27143e-11 6.54414e-15
2.53883e-10 -5.29779e-11 -8.37424e-15
2.8528e-10 -5.29127e-11 -8.53363e-14
3.17e-10 -5.29483e-11 -3.95774e-14
-3.17e-10 0 -4.25634e-14
-2.85552e-10 0 -1.40383e-14
-2.54058e-10 0 -7.78523e-15
-2.22178e-10 0 4.93706e-15
-1.9009e-10 0 2.36262e-14
-1.58599e-10 0 4.09529e-14
-1.26752e-10 0 -1.40246e-15
-9.50432e-11 0 -1.32642e-14
-6.36899e-11 0 8.36719e-15
-3.15336e-11 0 -1.46465e-14
1.08301e-13 0 -4.58553e-14
3.15973e-11 0 -2.18224e-14
6.32284e-11 0 1.67899e-14
9.49512e-11 0 -3.0799e-14
1.2665e-10 0 4.09313e-15
1.58474e-10 0 -4.32324e-17
1.90481e-10 0 -1.5373e-14
2.22459e-10 0 5.55607e-15
2.53763e-10 0 6.05729e-15
2.85448e-10 0 2.06837e-14
3.17e-10 0 3.86011e-14
-3.17e-10 -1.01279e-11 1.30452e-14
-2.85186e-10 -1.05789e-11 2.67415e-15
-2.53687e-10 -1.06324e-11 1.66886e-14
-2.22038e-10 -1.05761e-11 -3.18646e-15
-1.90296e-10 -1.04442e-11 1.72145e-14
-1.58558e-10 -1.02672e-11 -5.28933e-15
-1.26939e-10 -1.0637e-11 -2.67614e-15
-9.50076e-11 -1.06132e-11 2.0626e-14
-6.30842e-11 -1.04543e-11 -1.489e-14
-3.17079e-11 -1.05875e-11 -1.95783e-14
5.17795e-14 -1.04818e-11 -1.64633e-14
3.17589e-11 -1.05971e-11 -2.66224e-14
6.33398e-11 -1.01844e-11 -1.86184e-15
9.48778e-11 -1.04478e-11 -1.76931e-14
1.2695e-10 -1.03097e-11 -2.10583e-15
1.585e-10 -1.04216e-11 9.14955e-15
1.90292e-10 -1.05238e-11 -1.35e-14
2.21883e-10 -1.06263e-11 -9.27412e-15
2.53598e-10 -1.04397e-11 9.22319e-15
2.85298e-10 -1.03167e-11 1.80934e-14
3.17e-10 -1.03303e-11 6.95259e-15
-3.17e-10 -2.0992e-11 2.8659e-15
-2.85366e-10 -2.10791e-11 1.88678e-14
-2.53757e-10 -2.11408e-11 1.22542e-14
-2.22006e-10 -2.10448e-11 -5.69521e-15
-1.90252e-10 -2.09569e-11 5.32626e-15
-1.58517e-10 -2.08468e-11 -1.53593e-14
-1.26873e-10 -2.10789e-11 -3.49957e-15
-9.52235e-11 -2.09633e-11 -1.52466e-14
-6.34046e-11 -2.08324e-11 -2.31152e-14
-3.16396e-11 -2.10978e-11 2.44146e-15
4.82951e-14 -2.09104e-11 1.39564e-14
3.16952e-11 -2.10933e-11 1.33815e-14
6.31965e-11 -2.06947e-11 -1.33646e-14
9.51537e-11 -2.08859e-11 -1.72435e-14
1.26767e-10 -2.08118e-11 4.18491e-15
1.58381e-10 -2.07643e-11 -5.61003e-15
1.90238e-10 -2.0941e-11 -3.54634e-15
2.21915e-10 -2.11428e-11 1.12301e-14
2.537e-10 -2.09029e-11 -2.48648e-15
2.85387e-10 -2.10492e-11 1.55203e-14
3.17e-10 -2.14089e-11 2.35797e-14
-3.17e-10 -3.15517e-11 4.06335e-15
-2.85302e-10 -3.14838e-11 2.78912e-15
-2.53736e-10 -3.18568e-11 1.58428e-15
-2.22152e-10 -3.14215e-11 -2.25995e-15
-1.90502e-10 -3.1574e-11 2.32547e-14
-1.58717e-10 -3.16371e-11 3.73753e-14
-1.27009e-10 -3.15345e-11 8.35736e-15
-9.52576e-11 -3.16533e-11 7.71175e-15
-6.34507e-11 -3.13546e-11 -9.5811e-15
-3.16168e-11 -3.13137e-11 5.03518e-15
1.07805e-13 -3.12245e-11 2.54754e-14
3.18124e-11 -3.14348e-11 7.92043e-15
6.33995e-11 -3.12347e-11 7.61255e-15
9.50161e-11 -3.15607e-11 4.97226e-15
1.26852e-10 -3.16088e-11 -1.02577e-14
1.58574e-10 -3.13921e-11 -2.50958e-14
1.90333e-10 -3.15428e-11 -1.65931e-14
2.22077e-10 -3.16292e-11 2.56909e-14
2.53885e-10 -3.15587e-11 1.88376e-14
2.85284e-10 -3.1584e-11 -3.51334e-14
3.17e-10 -3.15109e-11 -2.55398e-14
-3.17e-10 -4.24163e-11 -6.58788e-14
-2.85216e-10 -4.21283e-11 -5.81e-14
-2.5371e-10 -4.20644e-11 -7.14575e-15
-2.22064e-10 -4.22101e-11 -1.48767e-14
-1.90506e-10 -4.18778e-11 -1.76013e-14
-1.59008e-10 -4.18547e-11 1.10423e-14
-1.27065e-10 -4.20696e-11 2.97762e-14
-9.53579e-11 -4.21154e-11 9.85655e-15
-6.36968e-11 -4.21954e-11 1.60709e-14
-3.16979e-11 -4.1959e-11 6.24375e-15
8.89887e-14 -4.161e-11 -8.70176e-15
3.17016e-11 -4.1897e-11 -5.63441e-15
6.39039e-11 -4.18145e-11 -7.40126e-15
9.53541e-11 -4.19936e-11 7.76594e-15
1.27091e-10 -4.21388e-11 1.91071e-14
1.58857e-10 -4.19457e-11 -1.04909e-14
1.9043e-10 -4.19731e-11 -6.77677e-15
2.22215e-10 -4.22737e-11 2.41612e-14
2.53627e-10 -4.21213e-11 6.82778e-15
2.8536e-10 -4.19617e-11 -1.73052e-14
3.17e-10 -4.21272e-11 -2.41996e-14
-3.17e-10 -5.2353e-11 9.393e-15
-2.85246e-10 -5.30964e-11 5.38343e-14
-2.5349e-10 -5.25901e-11 -6.58219e-15
-2.22344e-10 -5.25326e-11 -1.01384e-14
-1.90386e-10 -5.2352e-11 -7.27135e-14
-1.58778e-10 -5.21905e-11 -3.78909e-14
-1.27103e-10 -5.26885e-11 8.12279e-16
-9.52807e-11 -5.26882e-11 -4.74526e-14
-6.37386e-11 -5.2536e-11 2.92167e-15
-3.19924e-11 -5.2496e-11 1.61377e-14
2.58891e-14 -5.24319e-11 -2.76417e-14
3.20851e-11 -5.24689e-11 5.67703e-14
6.37781e-11 -5.25504e-11 2.79978e-15
9.54591e-11 -5.26937e-11 -3.09501e-17
1.26909e-10 -5.26197e-11 4.34438e-14
1.58842e-10 -5.29541e-11 4.36501e-14
1.9055e-10 -5.24808e-11 2.65658e-14
2.22039e-10 -5.28199e-11 1.95379e-14
2.53465e-10 -5.2596e-11 -5.43914e-15
2.85018e-10 -5.26192e-11 -2.27442e-14
3.17e-10 -5.23968e-11 1.31673e-14
-3.17e-10 0 6.16478e-14
-2.85396e-10 0 -4.33469e-15
-2.53901e-10 0 -1.80168e-14
-2.21554e-10 0 -2.42926e-14
-1.90248e-10 0 -2.16365e-14
-1.58708e-10 0 -5.03855e-15
-1.2681e-10 0 3.97515e-15
-9.48918e-11 0 2.87615e-14
-6.32252e-11 0 -7.25264e-15
-3.1524e-11 0 -3.91393e-14
7.10592e-14 0 -1.09263e-14
3.16388e-11 0 -1.39264e-14
6.33943e-11 0 -2.26604e-14
9.52096e-11 0 -5.52667e-15
1.27082e-10 0 -6.20134e-14
1.58458e-10 0 -8.28451e-15
1.90108e-10 0 -3.42766e-15
2.21883e-10 0 1.19972e-14
2.53888e-10 0 3.61067e-14
2.85287e-10 0 1.96778e-14
3.17e-10 0 5.93171e-14
-3.17e-10 -1.06309e-11 1.12737e-15
-2.85043e-10 -1.0316e-11 1.41606e-14
-2.53391e-10 -1.07902e-11 1.42224e-14
-2.21819e-10 -1.066e-11 2.2697e-14
-1.9012e-10 -1.05788e-11 -5.97858e-15
-1.58445e-10 -1.03288e-11 1.41683e-14
-1.26594e-10 -1.04307e-11 -4.67784e-15
-9.50916e-11 -1.03308e-11 -2.25693e-14
-6.33505e-11 -1.0392e-11 -1.2177e-14
-3.19949e-11 -1.03964e-11 -3.38241e-16
-1.00889e-14 -1.03666e-11 -1.86066e-14
3.18049e-11 -1.0359e-11 -1.64641e-14
6.34243e-11 -1.06123e-11 -1.36126e-14
9.5093e-11 -1.05107e-11 -3.666e-15
1.26779e-10 -1.03073e-11 -3.4853e-14
1.58494e-10 -1.04619e-11 8.35108e-15
1.9025e-10 -1.06291e-11 9.79783e-15
2.21874e-10 -1.03712e-11 7.98849e-15
2.53645e-10 -1.0658e-11 2.98531e-14
2.85463e-10 -1.05457e-11 1.8746e-15
3.17e-10 -1.08053e-11 1.2714e-14
-3.17e-10 -2.08554e-11 6.88789e-15
-2.85248e-10 -2.11597e-11 5.88871e-15
-2.5366e-10 -2.08282e-11 8.34961e-15
-2.22014e-10 -2.10134e-11 9.17365e-16
-1.9024e-10 -2.10047e-11 6.53839e-14
-1.58447e-10 -2.08287e-11 1.50984e-14
-1.26772e-10 -2.07972e-11 1.15338e-14
-9.49927e-11 -2.11096e-11 -2.5181e-14
-6.33405e-11 -2.06562e-11 -6.44696e-15
-3.1533e-11 -2.0749e-11 1.02527e-14
5.33394e-14 -2.09619e-11 2.5733e-14
3.17834e-11 -2.09182e-11 4.72818e-15
6.34383e-11 -2.08861e-11 -1.46428e-14
9.50475e-11 -2.09946e-11 7.10432e-16
1.26912e-10 -2.1072e-11 1.42822e-14
1.58546e-10 -2.0861e-11 1.07445e-14
1.90161e-10 -2.10055e-11 1.94831e-14
2.22016e-10 -2.08804e-11 2.8063e-15
2.53511e-10 -2.12859e-11 2.01904e-14
2.85171e-10 -2.08794e-11 -3.15288e-15
3.17e-10 -2.14536e-11 2.14096e-14
-3.17e-10 -3.172e-11 3.01067e-14
-2.85362e-10 -3.17318e-11 1.67427e-14
-2.53469e-10 -3.17143e-11 -1.32552e-14
-2.22048e-10 -3.16794e-11 -5.02892e-15
-1.90441e-10 -3.15563e-11 5.34719e-15
-1.58759e-10 -3.14847e-11 1.10075e-14
-1.26612e-10 -3.15228e-11 1.56699e-14
-9.53148e-11 -3.1534e-11 6.88778e-15
-6.36052e-11 -3.14023e-11 9.877e-15
-3.18334e-11 -3.14234e-11 -3.80368e-15
5.86369e-14 -3.14144e-11 2.21074e-14
3.17762e-11 -3.11935e-11 2.95273e-14
6.34736e-11 -3.14602e-11 -2.15626e-14
9.52372e-11 -3.14224e-11 -2.36174e-14
1.2718e-10 -3.1501e-11 2.93658e-14
1.58831e-10 -3.14315e-11 5.18548e-15
1.90413e-10 -3.13315e-11 5.04628e-15
2.21948e-10 -3.15144e-11 -6.97192e-15
2.53542e-10 -3.16186e-11 -2.51162e-14
2.85399e-10 -3.17777e-11 2.47609e-15
3.17e-10 -3.145e-11 -1.54163e-14
-3.17e-10 -4.18655e-11 1.87559e-14
-2.85304e-10 -4.22721e-11 1.85842e-14
-2.53713e-10 -4.22831e-11 1.76389e-14
-2.21998e-10 -4.20882e-11 2.56272e-14
-1.90419e-10 -4.18639e-11 4.56645e-15
-1.5868e-10 -4.19984e-11 -1.23617e-14
-1.27097e-10 -4.22377e-11 -1.09388e-14
-9.55236e-11 -4.18924e-11 -2.34603e-14
-6.38047e-11 -4.20667e-11 -1.49516e-14
-3.17577e-11 -4.19585e-11 -1.18027e-14
6.78147e-14 -4.17541e-11 1.04046e-14
3.17817e-11 -4.20094e-11 -1.13172e-14
6.36302e-11 -4.19007e-11 -2.86716e-14
9.51729e-11 -4.20234e-11 -6.58684e-15
1.2695e-10 -4.21493e-11 4.82807e-15
1.58864e-10 -4.20039e-11 4.27967e-15
1.90509e-10 -4.2049e-11 6.97978e-15
2.22109e-10 -4.19778e-11 1.63585e-14
2.5389e-10 -4.19854e-11 1.93177e-15
2.85497e-10 -4.20883e-11 -1.14119e-14
3.17e-10 -4.24044e-11 -2.96147e-14
-3.17e-10 -5.25286e-11 -7.01884e-14
-2.85103e-10 -5.28475e-11 -1.57345e-14
-2.53707e-10 -5.27698e-11 9.34167e-15
-2.22052e-10 -5.2757e-11 2.01479e-14
-1.90816e-10 -5.26674e-11 -2.73165e-14
-1.58766e-10 -5.23671e-11 -3.99086e-15
-1.27337e-10 -5.25232e-11 -1.06889e-14
-9.52269e-11 -5.22568e-11 -3.88395e-14
-6.37117e-11 -5.2471e-11 -3.04364e-14
-3.16854e-11 -5.27409e-11 -1.96512e-14
4.89073e-14 -5.2487e-11 -2.01006e-14
3.17241e-11 -5.25804e-11 1.04356e-14
6.38331e-11 -5.23769e-11 -6.8593e-15
9.55082e-11 -5.23446e-11 1.51793e-14
1.27236e-10 -5.25866e-11 6.95514e-14
1.58751e-10 -5.26217e-11 -7.38888e-15
1.90439e-10 -5.25424e-11 -1.05927e-14
2.22137e-10 -5.26616e-11 -5.02136e-15
2.53709e-10 -5.29255e-11 5.10573e-14
2.8529e-10 -5.29691e-11 2.71174e-14
3.17e-10 -5.27842e-11 2.4592e-14
-3.17e-10 0 3.04312e-14
-2.8524e-10 0 7.33518e-15
-2.53424e-10 0 1.82177e-14
-2.22174e-10 0 7.85428e-15
-1.90214e-10 0 1.38263e-14
-1.58516e-10 0 3.83777e-14
-1.26691e-10 0 2.32807e-14
-9.48744e-11 0 -3.74966e-15
-6.33239e-11 0 1.04129e-14
-3.16353e-11 0 2.30325e-14
1.0064e-13 0 -2.67995e-14
3.17045e-11 0 1.35671e-15
6.31111e-11 0 -1.33554e-15
9.48768e-11 0 -3.31717e-14
1.26718e-10 0 8.02243e-15
1.58445e-10 0 8.08714e-16
1.90325e-10 0 1.24652e-14
2.22047e-10 0 2.95441e-15
2.53602e-10 0 -3.13856e-15
2.85136e-10 0 1.65731e-14
3.17e-10 0 6.41881e-14
-3.17e-10 -1.04466e-11 6.72155e-15
-2.85233e-10 -1.07231e-11 -1.94851e-14
-2.5372e-10 -1.05129e-11 5.84322e-15
-2.21856e-10 -1.05359e-11 1.06192e-14
-1.90209e-10 -1.0377e-11 -1.42886e-14
-1.58254e-10 -1.05116e-11 1.87669e-14
-1.26836e-10 -1.04403e-11 -1.51315e-14
-9.52005e-11 -1.05114e-11 -2.60218e-14
-6.33364e-11 -1.04966e-11 -1.57231e-14
-3.16899e-11 -1.03218e-11 7.06417e-15
-2.11433e-16 -1.04646e-11 -3.14133e-14
3.15495e-11 -1.0454e-11 -9.14899e-16
6.32488e-11 -1.03316e-11 -2.16074e-14
9.51151e-11 -1.03973e-11 -1.88777e-14
1.26643e-10 -1.05342e-11 -1.61309e-14
1.58348e-10 -1.04583e-11 1.25964e-14
1.90251e-10 -1.02623e-11 3.00017e-14
2.21927e-10 -1.06036e-11 1.45096e-14
2.53516e-10 -1.05088e-11 -9.22928e-15
2.85434e-10 -1.03744e-11 -2.50329e-14
3.17e-10 -1.05096e-11 -3.12752e-15
-3.17e-10 -2.13995e-11 3.7763e-15
-2.85272e-10 -2.10775e-11 -2.2239e-14
-2.53698e-10 -2.12183e-11 -2.05213e-15
-2.21837e-10 -2.09223e-11 -4.65238e-15
-1.9015e-10 -2.10466e-11 4.48144e-15
-1.58739e-10 -2.09337e-11 9.12352e-15
-1.26861e-10 -2.08118e-11 3.60938e-14
-9.48671e-11 -2.09585e-11 -1.68919e-14
-6.34729e-11 -2.08953e-11 -1.97641e-14
-3.16545e-11 -2.09728e-11 -8.62735e-15
-3.46941e-14 -2.0693e-11 -5.27247e-15
3.18051e-11 -2.09076e-11 -1.94255e-14
6.33269e-11 -2.09569e-11 6.00395e-15
9.49451e-11 -2.09129e-11 2.4047e-14
1.26717e-10 -2.09146e-11 -1.59601e-14
1.58465e-10 -2.09373e-11 2.2881e-15
1.90119e-10 -2.10283e-11 3.86166e-15
2.21763e-10 -2.07402e-11 3.72266e-15
2.5372e-10 -2.12329e-11 6.32338e-15
2.85288e-10 -2.08725e-11 -1.0263e-14
3.17e-10 -2.12202e-11 -1.78206e-14
-3.17e-10 -3.18157e-11 3.29694e-14
-2.8536e-10 -3.14126e-11 8.06768e-15
-2.53709e-10 -3.18077e-11 7.60514e-15
-2.21867e-10 -3.16124e-11 9.08513e-15
-1.90237e-10 -3.14919e-11 -1.26051e-14
-1.58563e-10 -3.13387e-11 -3.08817e-14
-1.2696e-10 -3.15883e-11 2.61084e-15
-9.51877e-11 -3.141e-11 -1.25673e-15
-6.34713e-11 -3.12885e-11 -1.03457e-14
-3.16763e-11 -3.12335e-11 2.04201e-14
2.09978e-14 -3.13059e-11 -1.53056e-14
3.17689e-11 -3.13856e-11 -1.42838e-14
6.36372e-11 -3.14381e-11 2.34139e-14
9.51527e-11 -3.14273e-11 6.08065e-15
1.26964e-10 -3.1792e-11 -1.01319e-14
1.58426e-10 -3.12397e-11 -2.23859e-15
1.90284e-10 -3.1632e-11 4.50101e-15
2.21978e-10 -3.16976e-11 -3.40656e-15
2.53689e-10 -3.16065e-11 -1.75881e-14
2.85366e-10 -3.17015e-11 3.74404e-14
3.17e-10 -3.16144e-11 6.65354e-14
-3.17e-10 -4.21301e-11 1.88274e-14
-2.85295e-10 -4.24024e-11 2.82291e-15
-2.53771e-10 -4.22517e-11 -1.90316e-14
-2.22075e-10 -4.20994e-11 1.64075e-14
-1.90497e-10 -4.18213e-11 1.94355e-14
-1.58929e-10 -4.19227e-11 -1.52049e-14
-1.2697e-10 -4.20447e-11 -9.85991e-15
-9.53561e-11 -4.19161e-11 3.32284e-15
-6.35392e-11 -4.21114e-11 -1.16079e-14
-3.1806e-11 -4.19512e-11 2.70241e-14
2.20615e-14 -4.16591e-11 1.56401e-14
3.17465e-11 -4.19351e-11 -6.68932e-15
6.36866e-11 -4.18953e-11 -1.43085e-14
9.50988e-11 -4.19354e-11 1.66579e-14
1.2687e-10 -4.19785e-11 4.68519e-15
1.58633e-10 -4.18033e-11 -1.28556e-14
1.90433e-10 -4.19904e-11 -2.80709e-14
2.22139e-10 -4.22287e-11 -3.34868e-14
2.53835e-10 -4.21182e-11 -1.48363e-14
2.85348e-10 -4.23754e-11 3.36508e-14
3.17e-10 -4.20518e-11 1.76535e-14
-3.17e-10 -5.2527e-11 -3.80035e-14
-2.85498e-10 -5.29576e-11 -3.35286e-14
-2.53664e-10 -5.24846e-11 -9.07217e-15
-2.21995e-10 -5.28135e-11 7.53448e-15
-1.90408e-10 -5.22413e-11 1.48301e-14
-1.58281e-10 -5.25663e-11 1.39998e-14
-1.27171e-10 -5.27603e-11 -8.44559e-15
-9.52011e-11 -5.23758e-11 3.84017e-15
-6.34634e-11 -5.24537e-11 -3.37119e-14
-3.20913e-11 -5.26136e-11 -1.16204e-14
-1.21396e-15 -5.22724e-11 3.00368e-14
3.21164e-11 -5.26438e-11 -3.17172e-14
6.36689e-11 -5.26955e-11 -9.81284e-15
9.53388e-11 -5.26196e-11 4.86484e-14
1.2721e-10 -5.28391e-11 7.19461e-14
1.58733e-10 -5.22553e-11 -4.65632e-14
1.90765e-10 -5.25492e-11 -4.31745e-14
2.22059e-10 -5.25282e-11 1.02868e-14
2.53466e-10 -5.28117e-11 -4.83878e-14
2.85277e-10 -5.26754e-11 7.19009e-15
3.17e-10 -5.27288e-11 -6.57172e-14
-3.17e-10 0 -3.04214e-14
-2.85406e-10 0 5.28663e-16
-2.53775e-10 0 1.86501e-14
-2.22265e-10 0 3.14596e-14
-1.90329e-10 0 1.59727e-14
-1.58664e-10 0 -1.19916e-14
-1.26727e-10 0 1.59906e-14
-9.51108e-11 0 9.48823e-15
-6.33176e-11 0 -1.23403e-14
-3.16823e-11 0 -1.52029e-14
2.326e-14 0 2.17989e-16
3.16237e-11 0 -3.04134e-14
6.3228e-11 0 -2.38149e-14
9.49044e-11 0 -3.3438e-14
1.26876e-10 0 1.0016e-14
1.58659e-10 0 3.45145e-14
1.90227e-10 0 3.20916e-14
2.22008e-10 0 3.2349e-14
2.53653e-10 0 1.01411e-14
2.85262e-10 0 -3.77088e-14
3.17e-10 0 -2.51206e-14
-3.17e-10 -1.02397e-11 -9.34752e-15
-2.85177e-10 -1.04535e-11 1.57653e-16
-2.53564e-10 -1.04731e-11 1.40459e-14
-2.21784e-10 -1.0545e-11 2.99433e-14
-1.90269e-10 -1.0523e-11 1.71726e-14
-1.58588e-10 -1.03853e-11 -6.17066e-15
-1.26845e-10 -1.05404e-11 1.91178e-15
-9.52517e-11 -1.01857e-11 6.27628e-15
-6.36341e-11 -1.05741e-11 -2.90976e-14
-3.16935e-11 -1.02326e-11 -2.76118e-14
-3.77659e-14 -1.04901e-11 6.85277e-15
3.17432e-11 -1.03005e-11 -4.00231e-14
6.36699e-11 -1.06015e-11 -1.68044e-14
9.52914e-11 -1.03363e-11 -6.17051e-15
1.26814e-10 -1.03841e-11 6.37871e-15
1.58564e-10 -1.04317e-11 -3.97833e-15
1.90241e-10 -1.06455e-11 1.2704e-14
2.22048e-10 -1.0417e-11 1.95658e-14
2.53638e-10 -1.06233e-11 1.55814e-15
2.85326e-10 -1.06127e-11 -2.47189e-15
3.17e-10 -1.06515e-11 8.58606e-15
-3.17e-10 -2.10174e-11 1.01373e-14
-2.85181e-10 -2.11752e-11 6.58278e-15
-2.53457e-10 -2.09281e-11 1.60765e-14
-2.21953e-10 -2.10438e-11 2.10716e-14
-1.90364e-10 -2.09979e-11 1.67261e-14
-1.58476e-10 -2.0824e-11 -1.40878e-14
-1.26629e-10 -2.07972e-11 6.12566e-15
-9.49109e-11 -2.08231e-11 1.48184e-14
-6.32619e-11 -2.08976e-11 7.71769e-15
-3.18891e-11 -2.07795e-11 -1.8556e-14
-2.58788e-14 -2.08499e-11 -2.94238e-14
3.1682e-11 -2.08825e-11 -2.8932e-14
6.33678e-11 -2.09915e-11 1.88791e-14
9.51344e-11 -2.09833e-11 2.27608e-14
1.26949e-10 -2.09499e-11 6.14603e-15
1.58428e-10 -2.06871e-11 -5.74863e-17
1.90198e-10 -2.10016e-11 -2.48344e-14
2.21924e-10 -2.10758e-11 -5.56075e-15
2.53592e-10 -2.10173e-11 -7.28327e-15
2.85169e-10 -2.10016e-11 -1.06495e-14
3.17e-10 -2.12193e-11 8.8053e-15
-3.17e-10 -3.16212e-11 -1.90077e-14
-2.8554e-10 -3.16898e-11 -8.71599e-15
-2.53642e-10 -3.17289e-11 -2.22318e-15
-2.22034e-10 -3.14572e-11 -3.20005e-15
-1.90336e-10 -3.14538e-11 -5.62607e-15
-1.58712e-10 -3.15171e-11 -4.20913e-15
-1.26812e-10 -3.14253e-11 -2.99594e-14
-9.51309e-11 -3.14698e-11 4.75073e-15
-6.34809e-11 -3.14894e-11 1.48292e-14
-3.17224e-11 -3.12383e-11 -1.10987e-14
3.65874e-14 -3.13925e-11 1.27246e-14
3.16331e-11 -3.13624e-11 5.00511e-15
6.32786e-11 -3.12952e-11 2.61828e-14
9.51424e-11 -3.15592e-11 3.22279e-14
1.26924e-10 -3.14746e-11 -7.21259e-15
1.58908e-10 -3.14512e-11 -2.012e-14
1.90386e-10 -3.13109e-11 -3.52294e-14
2.22049e-10 -3.15056e-11 -1.52888e-14
2.53557e-10 -3.1436e-11 2.02883e-14
2.85394e-10 -3.16168e-11 8.45777e-15
3.17e-10 -3.1987e-11 -2.159e-15
-3.17e-10 -4.20341e-11 -1.95367e-14
-2.85122e-10 -4.21504e-11 -1.9774e-15
-2.5375e-10 -4.21249e-11 -2.49548e-15
-2.22155e-10 -4.20014e-11 -1.3442e-14
-1.90552e-10 -4.19117e-11 -1.74591e-14
-1.58793e-10 -4.20499e-11 -5.31291e-15
-1.27088e-10 -4.22712e-11 -1.78326e-14
-9.5348e-11 -4.18929e-11 1.10249e-14
-6.37567e-11 -4.19375e-11 2.71488e-15
-3.17155e-11 -4.17963e-11 1.99832e-14
5.24416e-14 -4.21159e-11 1.26501e-14
3.15803e-11 -4.18084e-11 2.0578e-15
6.35859e-11 -4.20674e-11 7.79283e-15
9.52651e-11 -4.19537e-11 1.10464e-14
1.27019e-10 -4.19902e-11 -1.6257e-14
1.58982e-10 -4.17591e-11 -8.63361e-16
1.9062e-10 -4.19477e-11 1.27589e-15
2.22101e-10 -4.20406e-11 -3.41898e-14
2.53813e-10 -4.2064e-11 -6.82653e-15
2.85535e-10 -4.19087e-11 3.24707e-14
3.17e-10 -4.22163e-11 4.45173e-14
-3.17e-10 -5.27563e-11 7.40814e-15
-2.85479e-10 -5.26406e-11 -2.4423e-14
-2.5383e-10 -5.27563e-11 1.4684e-14
-2.22315e-10 -5.26454e-11 -2.42644e-14
-1.90556e-10 -5.24912e-11 1.219e-14
-1.58492e-10 -5.27292e-11 2.66286e-14
-1.27117e-10 -5.25188e-11 6.55827e-15
-9.54532e-11 -5.23194e-11 -8.83073e-15
-6.36704e-11 -5.26581e-11 -8.02918e-14
-3.19738e-11 -5.24926e-11 -4.09807e-14
4.0304e-14 -5.24665e-11 6.54835e-14
3.1847e-11 -5.25981e-11 3.52935e-14
6.34552e-11 -5.25624e-11 -2.94973e-14
9.5329e-11 -5.23402e-11 -3.75077e-14
1.27239e-10 -5.27179e-11 -8.27037e-15
1.58933e-10 -5.25735e-11 5.29522e-15
1.90594e-10 -5.25752e-11 -1.10249e-15
2.22167e-10 -5.29341e-11 -3.19566e-14
2.5394e-10 -5.26054e-11 -3.93777e-14
2.85287e-10 -5.29985e-11 2.3754e-14
3.17e-10 -5.2637e-11 6.10616e-14
-3.17e-10 0 4.1678e-14
-2.85367e-10 0 2.87405e-14
-2.53655e-10 0 1.03682e-14
-2.2189e-10 0 2.63009e-14
-1.90349e-10 0 4.37099e-15
-1.58338e-10 0 -1.76021e-14
-1.2675e-10 0 2.53708e-15
-9.51103e-11 0 -9.97393e-15
-6.34037e-11 0 -1.44006e-14
-3.18333e-11 0 -1.97993e-14
3.13491e-14 0 7.15563e-15
3.15028e-11 0 -1.90551e-14
6.32671e-11 0 9.89633e-15
9.51932e-11 0 -9.92438e-15
1.26962e-10 0 -2.54997e-14
1.58726e-10 0 4.41773e-15
1.90455e-10 0 1.18575e-14
2.22181e-10 0 1.31503e-14
2.53627e-10 0 6.47055e-15
2.85216e-10 0 4.04832e-15
3.17e-10 0 4.43644e-14
-3.17e-10 -1.05507e-11 2.2161e-14
-2.85343e-10 -1.06958e-11 1.1426e-14
-2.53874e-10 -1.06481e-11 -8.54987e-15
-2.22054e-10 -1.04373e-11 9.82595e-15
-1.90217e-10 -1.04413e-11 3.94144e-15
-1.5845e-10 -1.04686e-11 -1.21954e-14
-1.26862e-10 -1.02781e-11 9.05067e-15
-9.51326e-11 -1.05972e-11 4.26379e-15
-6.3265e-11 -1.0567e-11 2.05123e-15
-3.15846e-11 -1.04746e-11 4.9668e-15
-8.53007e-14 -1.06571e-11 6.74918e-15
3.16928e-11 -1.04287e-11 -8.15873e-15
6.32867e-11 -1.05198e-11 -1.88291e-15
9.50338e-11 -1.0376e-11 5.98688e-15
1.26618e-10 -1.05478e-11 2.28113e-15
1.58421e-10 -1.02578e-11 -1.58855e-14
1.90181e-10 -1.04212e-11 5.90436e-15
2.21758e-10 -1.03076e-11 1.05941e-14
2.53504e-10 -1.0481e-11 -8.594e-15
2.85345e-10 -1.046e-11 -4.62292e-15
3.17e-10 -1.06408e-11 4.25326e-14
-3.17e-10 -2.13721e-11 -2.92314e-14
-2.85291e-10 -2.11113e-11 -7.00481e-15
-2.53622e-10 -2.10409e-11 1.03844e-15
-2.21887e-10 -2.0934e-11 -7.94706e-15
-1.90001e-10 -2.09675e-11 -3.319e-14
-1.58321e-10 -2.10316e-11 -1.80674e-15
-1.26777e-10 -2.07221e-11 -8.12469e-15
-9.50928e-11 -2.09917e-11 9.75769e-15
-6.33954e-11 -2.09116e-11 2.29992e-14
-3.17092e-11 -2.07325e-11 2.33679e-14
-5.85078e-14 -2.09709e-11 -1.72209e-14
3.1715e-11 -2.09012e-11 8.50387e-15
6.335e-11 -2.09166e-11 8.76852e-15
9.50087e-11 -2.0986e-11 -1.02351e-14
1.26597e-10 -2.0899e-11 -1.53998e-14
1.58576e-10 -2.08198e-11 8.7609e-15
1.89953e-10 -2.07783e-11 1.18148e-14
2.21922e-10 -2.09305e-11 2.65188e-15
2.53598e-10 -2.09631e-11 1.98006e-14
2.85256e-10 -2.11354e-11 -3.78249e-15
3.17e-10 -2.11468e-11 -2.80469e-14
-3.17e-10 -3.15676e-11 -3.2066e-14
-2.85404e-10 -3.1451e-11 -3.37486e-14
-2.53681e-10 -3.1831e-11 2.13588e-14
-2.22089e-10 -3.16004e-11 2.26374e-14
-1.90331e-10 -3.12802e-11 2.97084e-15
-1.58714e-10 -3.16181e-11 2.741e-14
-1.2693e-10 -3.14652e-11 -1.14354e-14
-9.5269e-11 -3.15487e-11 5.0347e-15
-6.35014e-11 -3.14296e-11 1.12963e-14
-3.17283e-11 -3.11522e-11 -6.74357e-16
2.40137e-14 -3.13123e-11 1.19192e-14
3.18436e-11 -3.13668e-11 4.63666e-15
6.36711e-11 -3.14881e-11 1.52448e-14
9.52949e-11 -3.13119e-11 -1.17295e-14
1.26975e-10 -3.15528e-11 -1.42561e-14
1.58565e-10 -3.14531e-11 -4.07655e-15
1.90261e-10 -3.16763e-11 6.67408e-15
2.21866e-10 -3.16137e-11 3.91562e-14
2.5344e-10 -3.15583e-11 -1.75735e-14
2.85333e-10 -3.15955e-11 -1.29077e-14
3.17e-10 -3.18225e-11 -3.39346e-14
-3.17e-10 -4.23366e-11 2.87972e-15
-2.85493e-10 -4.21716e-11 -4.25352e-15
-2.53752e-10 -4.22616e-11 -1.08926e-14
-2.22071e-10 -4.20814e-11 -1.22603e-14
-1.90313e-10 -4.19267e-11 2.33222e-14
-1.58647e-10 -4.20493e-11 4.26383e-14
-1.2692e-10 -4.20727e-11 -9.05557e-15
-9.53072e-11 -4.17021e-11 -1.01255e-14
-6.35071e-11 -4.19068e-11 8.47193e-15
-3.18712e-11 -4.18126e-11 -8.68645e-15
1.4315e-15 -4.17026e-11 7.24883e-15
3.18363e-11 -4.18998e-11 1.60592e-14
6.36987e-11 -4.18956e-11 5.82353e-15
9.54124e-11 -4.19365e-11 -1.7429e-14
1.27025e-10 -4.18033e-11 -1.47952e-14
1.58842e-10 -4.20162e-11 9.17207e-15
1.90561e-10 -4.21125e-11 2.51468e-14
2.22037e-10 -4.2025e-11 7.08134e-16
2.53763e-10 -4.22816e-11 -2.22605e-14
2.85353e-10 -4.22397e-11 -1.75482e-14
3.17e-10 -4.23691e-11 5.20946e-14
-3.17e-10 -5.26479e-11 2.7972e-14
-2.8534e-10 -5.26447e-11 3.63855e-14
-2.53637e-10 -5.28694e-11 -7.83406e-15
-2.21996e-10 -5.26831e-11 -2.84147e-14
-1.90442e-10 -5.25777e-11 -1.96347e-14
-1.59024e-10 -5.26248e-11 -2.18039e-15
-1.27148e-10 -5.27141e-11 3.81497e-15
-9.54994e-11 -5.26369e-11 5.43654e-14
-6.36571e-11 -5.24285e-11 -4.81351e-14
-3.20106e-11 -5.22512e-11 -2.19905e-14