<?xml version="1.0"?>
<VTKFile type="StructuredGrid"  version="0.1" byte_order="LittleEndian" compressor="vtkZLibDataCompressor">
  <StructuredGrid WholeExtent="0 20 0 5 0 40">
    <Piece Extent="0 20 0 5 0 40">
      <PointData Vectors="velocity">
        <DataArray type="Float64" Name="velocity" NumberOfComponents="3" format="ascii">
-3.17e-10 0 0
-2.68694e-10 0 0
-2.39188e-10 0 0
-3.81894e-10 0 0
-6.14589e-10 0 0
-4.81227e-10 0 0
-1.92128e-10 0 0
-1.11332e-10 0 0
-1.11382e-10 0 0
-5.1333e-10 0 0
5.49316e-10 0 0
-5.98614e-10 0 0
-7.99782e-11 0 0
-1.84238e-10 0 0
1.85539e-11 0 0
-2.34533e-10 0 0
-1.13818e-10 0 0
4.19743e-10 0 0
2.8317e-10 0 0
2.96232e-10 0 0
3.17e-10 0 0
-3.17e-10 -1.33954e-10 0
-4.3928e-10 2.91201e-10 0
-5.1556e-11 4.049e-10 0
-5.70762e-10 1.73993e-10 0
-2.72521e-10 -5.99786e-11 0
-1.05416e-09 -2.68302e-10 0
1.78445e-10 -1.32842e-10 0
-4.74547e-10 7.23321e-10 0
-3.41752e-10 1.56026e-09 0
-1.03582e-09 9.58464e-10 0
6.83618e-10 1.29448e-09 0
-5.3934e-10 8.14669e-10 0
-1.09114e-10 1.63839e-11 0
-1.93441e-10 5.9688e-10 0
-4.30315e-10 -1.87597e-10 0
7.13096e-10 1.10655e-09 0
6.53592e-10 1.19695e-09 0
-3.15033e-11 2.38313e-09 0
2.47497e-10 1.00706e-09 0
1.33294e-10 -5.3871e-11 0
3.17e-10 -7.55649e-11 0
-3.17e-10 -7.65287e-10 0
1.3241e-10 -5.29678e-10 0
-6.39648e-10 -3.65925e-10 0
-2.82502e-10 -4.72664e-10 0
-1.1746e-10 -6.87093e-10 0
-5.48962e-10 -7.3146e-10 0
-1.96435e-09 -5.72651e-10 0
3.42608e-09 -2.02319e-10 0
-1.41649e-09 -2.37046e-09 0
-1.2954e-09 4.85057e-10 0
-1.91019e-10 -1.08471e-10 0
3.55756e-10 -1.99436e-10 0
-1.88267e-10 -6.00858e-10 0
-4.17269e-10 -2.20092e-10 0
-4.87182e-11 -1.42072e-10 0
-1.57279e-10 -1.23697e-10 0
2.92259e-10 -1.92018e-09 0
3.27543e-10 -2.68062e-10 0
1.08095e-09 4.59427e-10 0
2.10041e-10 7.81629e-11 0
3.17e-10 -1.78605e-10 0
-3.17e-10 -1.99492e-11 0
-6.18845e-10 1.54268e-09 0
-1.50202e-10 -1.23434e-09 0
-3.22483e-10 4.40643e-10 0
3.39425e-11 1.52143e-09 0
-5.97994e-10 2.76249e-09 0
-1.41146e-09 4.26363e-10 0
8.57086e-10 9.55954e-10 0
-4.16018e-10 4.92577e-10 0
-4.09621e-10 8.19694e-10 0
1.2168e-10 -7.99769e-11 0
-4.38574e-11 8.52431e-12 0
-6.68405e-10 9.26239e-10 0
-2.52403e-10 2.46667e-10 0
2.13261e-10 2.94103e-09 0
-1.07001e-10 2.77865e-09 0
-2.51431e-11 1.22272e-09 0
5.29506e-10 8.18947e-10 0
2.52612e-10 -5.95681e-11 0
-2.86564e-10 -5.26079e-10 0
3.17e-10 -4.545e-10 0
-3.17e-10 2.76995e-09 0
-3.57177e-10 3.99464e-09 0
-5.85687e-10 7.29548e-09 0
-4.53012e-10 3.96236e-09 0
-6.05048e-10 4.6639e-09 0
-7.16775e-10 1.07533e-08 0
-2.00783e-09 5.89557e-09 0
-1.18455e-09 9.18824e-10 0
-6.14098e-10 9.6805e-10 0
-1.19047e-10 7.79113e-10 0
-3.84412e-10 3.53132e-09 0
-6.56411e-10 5.92679e-10 0
8.39258e-10 1.05242e-09 0
6.9611e-10 2.31101e-09 0
6.92383e-10 3.79471e-09 0
-7.44691e-10 1.93478e-09 0
-6.98721e-11 3.40164e-10 0
4.51209e-10 1.94344e-10 0
4.59673e-10 -6.37194e-11 0
3.19723e-10 1.1578e-10 0
3.17e-10 -1.73299e-10 0
-3.17e-10 4.18241e-10 0
-1.03686e-09 -7.3359e-09 0
-2.26654e-10 4.61034e-09 0
-1.16002e-10 -9.37812e-09 0
-1.28289e-09 -3.71955e-09 0
-2.29539e-10 -6.20396e-09 0
1.11134e-09 3.89204e-09 0
-1.13115e-09 1.16152e-09 0
-2.29389e-10 4.08717e-09 0
1.068e-09 -3.94613e-09 0
-3.39483e-10 -4.77477e-09 0
-5.29728e-10 -1.12402e-09 0
9.9391e-10 2.15055e-09 0
-2.58941e-10 -1.26948e-08 0
-1.8206e-09 -1.07585e-08 0
-6.29784e-10 -2.30163e-09 0
9.08694e-10 6.54451e-10 0
1.20033e-10 1.08276e-10 0
4.85754e-10 -2.18108e-10 0
4.31198e-10 -1.11698e-10 0
3.17e-10 3.4684e-10 0
-3.17e-10 0 1.35141e-10
-2.34827e-10 0 2.12647e-11
-1.96436e-10 0 8.19376e-11
-6.04703e-12 0 2.59399e-11
-3.15276e-10 0 -2.44186e-11
2.2988e-10 0 6.42349e-11
-2.66877e-10 0 -9.34558e-11
-2.88192e-10 0 -5.94111e-11
-1.62103e-10 0 1.80336e-11
-9.21463e-11 0 1.54389e-10
-3.48236e-11 0 6.18189e-11
-5.56292e-11 0 -1.45349e-10
9.57152e-11 0 -1.19933e-10
1.16505e-10 0 -8.05361e-11
5.5401e-11 0 3.4888e-11
7.57207e-11 0 -5.38234e-11
1.69121e-10 0 -2.31673e-10
9.26599e-11 0 -4.36769e-10
1.21713e-10 0 -1.96421e-10
2.09793e-11 0 -1.60385e-10
3.17e-10 0 -2.34324e-10
-3.17e-10 1.55638e-10 1.23455e-10
-4.15957e-10 -2.8718e-10 1.83721e-11
-2.28296e-10 -3.37362e-11 2.98951e-11
-4.50771e-10 2.07829e-10 6.4352e-11
-2.2427e-10 3.0101e-10 7.24581e-11
-5.27783e-10 -4.87008e-11 1.19797e-10
-4.24432e-10 -1.12416e-10 1.34785e-11
8.03913e-11 3.97499e-11 -3.27284e-10
-7.56221e-11 5.07754e-10 -1.32941e-10
-5.43506e-11 3.13884e-10 1.43599e-10
-6.33241e-11 6.62734e-10 1.33909e-10
-8.15489e-11 6.23876e-10 -2.78581e-10
-4.85711e-11 1.32944e-10 -1.66264e-11
-2.64279e-11 3.91365e-10 -8.7623e-11
1.62698e-11 2.66133e-10 3.56462e-11
2.11231e-10 1.65349e-10 -7.84982e-11
6.26195e-10 8.67801e-10 -1.04209e-10
2.91251e-10 -1.62135e-10 9.68744e-10
5.94666e-10 -1.12748e-10 -6.49014e-10
1.15991e-10 3.84612e-11 -1.06184e-10
3.17e-10 5.23126e-11 -1.56837e-10
-3.17e-10 -1.4925e-09 1.95857e-10
-3.98885e-10 -6.33456e-10 -2.92405e-11
-4.04302e-10 -3.56172e-10 5.75007e-11
-1.45567e-10 -7.77174e-10 2.15133e-10
-1.45793e-11 -1.35235e-09 5.65777e-11
-4.97936e-10 -4.94013e-10 2.8575e-10
-4.70875e-10 -1.8199e-10 3.66181e-10
-3.31275e-10 -3.2667e-10 -4.77511e-11
-2.47653e-10 -9.01322e-11 -9.17404e-10
-4.32145e-10 -1.82973e-10 -2.41219e-10
2.07764e-10 -8.3087e-10 1.23859e-10
-9.41665e-11 -6.34565e-11 -2.69334e-11
-1.44013e-10 -1.71537e-10 -5.92071e-11
-3.33063e-11 -2.26547e-10 -2.09609e-10
1.3399e-10 -1.02827e-09 -1.38119e-10
1.20615e-10 -6.41268e-10 -3.05122e-10
5.60645e-10 -1.16904e-09 2.18235e-09
4.18967e-10 -1.42468e-09 -2.65959e-09
2.33897e-10 -6.82333e-10 -9.24768e-10
3.85348e-11 -7.23292e-11 -6.88779e-11
3.17e-10 -9.35469e-11 5.56677e-11
-3.17e-10 -5.61174e-10 3.89525e-10
-5.26024e-10 -7.19846e-11 6.25233e-10
-5.7799e-10 1.22738e-09 4.13374e-10
-2.54619e-10 7.10551e-10 -9.15951e-11
-2.64059e-10 3.5227e-09 -2.47491e-10
-2.33973e-10 4.18693e-09 -4.22551e-11
-6.28658e-10 -2.96175e-10 -3.40789e-10
-6.00585e-10 -1.55522e-10 -3.75322e-11
-2.73273e-10 5.99486e-10 -8.75159e-10
-2.69104e-10 6.2609e-10 2.09512e-10
2.86399e-10 -1.19043e-09 2.07158e-10
1.09203e-10 -9.91033e-11 -1.97762e-10
-3.63033e-11 6.97478e-10 -9.60622e-11
2.5333e-11 3.82467e-10 5.74174e-11
1.33005e-10 2.68368e-09 6.09011e-11
2.30266e-10 4.02985e-09 1.435e-12
9.54566e-11 8.51876e-10 -3.09235e-10
4.75131e-10 -3.69082e-10 -6.08018e-10
1.90745e-10 -5.42707e-10 -7.33818e-11
4.28015e-10 -3.45037e-10 -1.33136e-10
3.17e-10 3.2847e-10 -2.45851e-10
-3.17e-10 5.42435e-09 1.06636e-09
-3.14484e-10 2.62924e-09 6.45244e-10
1.17074e-10 4.2416e-09 2.22102e-10
1.63379e-10 3.98585e-09 -2.25009e-10
-6.22175e-11 7.22852e-09 -7.89846e-10
-4.98417e-10 6.93156e-09 -1.00388e-10
-1.76305e-09 2.21425e-09 -3.21932e-10
-3.50388e-10 3.19687e-10 2.58413e-10
2.99676e-10 1.58882e-09 8.23794e-10
8.23294e-10 7.08413e-09 4.38714e-10
-1.76307e-10 2.40142e-09 9.45505e-10
-7.43831e-10 7.54845e-10 2.49223e-10
2.02336e-10 2.21253e-09 -7.12325e-11
1.16198e-09 2.68919e-09 1.27705e-09
3.72675e-10 8.07857e-09 -4.50523e-10
-5.38507e-11 9.08951e-09 3.5492e-10
-8.5311e-10 2.13497e-09 5.50475e-10
1.58624e-10 1.65886e-10 8.26724e-11
2.62336e-10 -3.02131e-10 -2.15576e-10
1.34563e-10 -3.84827e-10 -1.26639e-10
3.17e-10 -3.70379e-10 2.14036e-10
-3.17e-10 -8.54569e-09 1.43363e-09
1.78837e-10 -8.48347e-09 -3.35034e-10
7.67369e-10 3.71643e-09 9.20038e-11
-3.39385e-10 -8.10854e-09 -4.07329e-11
-6.6546e-10 9.5133e-09 -7.00382e-10
1.12749e-09 -3.5551e-09 1.88899e-09
6.49145e-10 -7.7546e-09 2.39278e-09
-8.78278e-10 -2.52547e-10 5.91219e-10
-5.72406e-10 -9.95536e-10 -9.42305e-10
-1.60533e-10 -3.15062e-11 -1.48256e-09
-7.82898e-10 5.98924e-10 1.06937e-09
-3.32574e-10 -2.40429e-09 3.65471e-09
8.50842e-11 -2.5088e-09 1.20306e-09
1.93076e-09 -1.27211e-09 9.56133e-10
-8.30575e-10 -1.12107e-08 -2.30085e-09
-5.43268e-10 -1.61384e-09 1.52113e-09
3.7908e-10 -3.88988e-09 2.45173e-09
2.05621e-10 2.20628e-10 -4.82081e-11
-2.96778e-10 -2.70794e-10 -3.16056e-10
4.68813e-10 8.2624e-10 -8.99609e-10
3.17e-10 -3.69341e-10 4.36976e-10
-3.17e-10 0 -7.58119e-11
-1.33069e-10 0 -1.17303e-10
-1.46332e-10 0 -1.14669e-10
-2.15733e-11 0 -3.78006e-11
-3.04055e-10 0 -1.22372e-10
-3.78601e-10 0 8.40138e-11
-2.82076e-10 0 2.09538e-11
-5.44946e-11 0 -1.5641e-10
3.41146e-11 0 6.88831e-11
-1.07695e-10 0 1.54431e-10
-3.59228e-11 0 1.82751e-10
1.4197e-10 0 1.02559e-10
2.2512e-10 0 -4.2232e-11
2.94097e-10 0 1.64899e-12
1.09014e-10 0 -1.28663e-11
1.33341e-10 0 -1.93549e-11
1.63872e-10 0 -1.11058e-10
2.8616e-10 0 -3.30373e-10
-1.47159e-11 0 -1.93488e-10
-5.89787e-11 0 -1.93707e-10
3.17e-10 0 -1.18473e-10
-3.17e-10 -1.8891e-10 1.12955e-10
-2.2547e-10 -2.31622e-10 4.28848e-11
-1.2253e-10 2.81858e-10 8.92964e-11
-1.39533e-10 8.49544e-11 1.16113e-10
-1.97311e-10 3.41007e-10 4.49095e-11
-3.51289e-10 3.70373e-11 5.73382e-11
-1.11721e-10 -8.59347e-11 3.05804e-11
-5.85926e-11 -1.49359e-10 2.95887e-11
-1.53415e-10 3.66441e-10 -5.8359e-11
1.21695e-11 4.54207e-10 4.37333e-12
1.27095e-11 3.27388e-10 1.10373e-12
1.40837e-10 1.12094e-10 -1.84436e-11
2.68531e-10 5.13569e-11 -6.70959e-11
1.32754e-10 4.56128e-11 4.2487e-11
8.75619e-11 9.05566e-11 -3.00742e-11
1.75365e-10 6.67807e-11 -1.68348e-10
3.25939e-10 6.1793e-12 -4.84913e-10
4.53682e-11 5.15283e-12 -4.47308e-10
2.14052e-11 8.71618e-11 -2.13512e-10
2.44989e-11 1.62915e-10 -9.23337e-11
3.17e-10 2.47812e-10 -1.61478e-11
-3.17e-10 -1.98471e-09 1.28502e-10
-2.45497e-10 -3.89154e-10 1.15052e-10
-3.36858e-10 -8.5861e-10 2.93367e-10
-3.05815e-10 -3.55442e-10 2.42635e-10
-2.2578e-10 -3.06493e-10 3.3432e-10
-4.44705e-10 -1.01474e-09 1.73426e-10
-2.7644e-10 -1.978e-10 1.5742e-10
-2.61047e-10 -1.64607e-10 -8.55795e-11
-6.64372e-12 -4.9741e-10 -3.1861e-10
2.05814e-10 -6.88426e-10 -7.70298e-11
2.14582e-11 2.27366e-10 -1.70669e-10
-3.90768e-11 -9.87476e-10 -7.69914e-11
-1.93082e-10 -1.93339e-10 -9.51534e-12
-1.13923e-10 -8.28596e-10 -8.53466e-11
3.00581e-10 -4.26736e-10 -2.16581e-10
4.45258e-10 -5.60292e-10 -3.22168e-10
4.20517e-10 -2.87817e-10 -7.49359e-10
3.64161e-10 -2.01769e-10 -5.87789e-10
-1.27798e-10 -1.75346e-10 -3.05036e-10
1.77817e-10 -7.43888e-10 -7.3025e-11
3.17e-10 -7.20299e-11 -2.21829e-10
-3.17e-10 1.47725e-09 1.33635e-10
-4.20569e-11 2.89269e-09 3.06532e-10
-4.05416e-10 6.53162e-10 4.16858e-10
-5.45599e-10 2.05525e-09 5.78848e-11
6.10537e-11 -1.0192e-09 -4.98467e-11
-3.12094e-11 1.7375e-09 -1.58062e-10
-3.20905e-10 7.1415e-10 -8.75717e-11
1.93644e-10 -7.27259e-10 -1.13356e-10
6.87193e-10 1.2498e-09 -3.11888e-10
-1.46367e-10 2.18422e-09 3.41878e-10
-8.13684e-11 -1.69449e-09 4.67662e-11
-1.49471e-10 -1.66192e-09 -1.14977e-10
3.86473e-10 -1.11508e-09 -1.41386e-10
1.517e-10 8.65435e-10 -1.11332e-10
1.6998e-10 1.94358e-09 -5.02293e-11
4.12475e-10 -4.62027e-10 -1.89213e-10
3.6894e-10 4.2545e-10 -4.14955e-10
-1.41798e-10 -5.25608e-10 -5.50816e-10
1.90351e-10 -5.28026e-10 -3.06452e-10
3.88457e-10 -4.21312e-10 -2.02351e-10
3.17e-10 4.48438e-11 -2.97429e-10
-3.17e-10 2.97759e-09 9.56134e-11
-8.19824e-10 6.95961e-09 7.21117e-10
-5.59945e-10 8.08674e-09 5.25972e-10
5.80541e-10 5.00374e-09 -3.01253e-10
4.52e-10 6.9581e-09 -3.03692e-10
-1.01818e-09 9.89606e-09 -5.07362e-10
-1.14632e-09 3.93346e-10 -1.42277e-09
8.38564e-11 -4.68087e-10 -2.4113e-10
1.1685e-09 3.70492e-09 4.72314e-10
-1.02146e-10 1.00403e-08 3.63641e-10
8.73513e-11 4.98211e-09 -3.55795e-11
2.23978e-10 1.64281e-09 -1.16507e-10
-7.97213e-10 1.21445e-09 4.93103e-10
1.05326e-09 3.61074e-09 1.37711e-09
1.03946e-09 5.55736e-09 1.35595e-10
-1.2984e-09 5.42432e-09 -2.33535e-10
-1.08567e-09 1.05764e-09 -1.47379e-09
3.67252e-10 -9.08582e-11 -3.24175e-11
2.64695e-10 8.6106e-10 4.24178e-10
2.14933e-10 6.94281e-10 -3.89632e-10
3.17e-10 3.80512e-10 -1.04063e-09
-3.17e-10 2.63376e-09 -1.74004e-09
-4.77924e-10 -6.1697e-09 -5.30145e-10
6.67659e-10 -7.84383e-10 1.05113e-09
1.10923e-09 -1.48448e-08 -6.89803e-10
-1.3218e-09 -2.48478e-09 1.54442e-09
-1.38039e-09 -1.28034e-08 -8.38586e-10
3.65515e-10 1.13108e-09 -1.71925e-09
-6.24545e-10 1.79057e-10 -1.57751e-09
-1.40284e-09 1.21685e-09 9.09653e-10
-1.69148e-09 -1.26889e-08 -8.41063e-11
1.61285e-09 -1.51237e-08 -1.48081e-09
2.10633e-10 8.56083e-09 9.67249e-10
-7.05618e-10 5.86244e-09 -2.50882e-09
-1.50876e-10 -6.97334e-09 -2.39125e-09
-3.9511e-11 -6.8342e-09 3.35231e-09
-3.62445e-10 -7.78592e-09 4.30559e-10
-1.72778e-10 -4.35521e-10 -1.8625e-09
3.36634e-10 -1.29012e-09 3.75583e-10
-1.90855e-10 -1.3436e-09 -3.8412e-10
-1.19212e-09 -3.85448e-09 -4.02532e-09
3.17e-10 -4.30356e-09 3.02493e-09
-3.17e-10 0 -2.71214e-12
-1.95961e-10 0 -1.02567e-10
1.36353e-10 0 8.75073e-11
-3.29813e-11 0 -2.79436e-11
-2.58714e-11 0 1.93787e-12
-2.93894e-10 0 -1.57755e-11
-8.33153e-11 0 6.75179e-13
-1.31443e-10 0 6.82452e-11
-1.69592e-10 0 9.44229e-11
-3.69495e-11 0 1.10655e-10
5.83736e-11 0 1.04883e-10
1.47119e-10 0 3.198e-11
2.54907e-10 0 -8.18431e-11
2.79069e-10 0 -1.41543e-10
1.92897e-10 0 -1.04077e-10
1.67543e-10 0 -9.36299e-11
3.57255e-11 0 -1.165e-10
4.00552e-11 0 -1.805e-10
1.01176e-10 0 -1.49477e-10
2.55733e-10 0 -1.23909e-10
3.17e-10 0 -1.64028e-10
-3.17e-10 -1.37663e-10 4.83385e-11
-3.01309e-10 -3.19499e-11 6.86098e-11
-1.56508e-10 1.88838e-10 1.51338e-10
-1.96913e-10 3.68399e-10 9.02563e-11
-1.3355e-10 1.7794e-10 1.14285e-11
-2.51834e-10 1.36679e-10 -1.03243e-11
-2.95459e-10 2.2576e-10 2.90983e-11
-1.63026e-10 2.67314e-11 8.92898e-11
-4.83768e-11 2.21362e-10 6.19971e-12
6.04414e-13 7.77492e-11 -3.16891e-12
2.72382e-11 6.49248e-11 -2.95746e-11
8.83074e-12 7.58687e-11 -1.52143e-11
2.07326e-10 1.29012e-10 -7.12694e-11
2.8552e-10 8.76906e-11 -1.08388e-10
3.29712e-10 -6.71376e-12 -1.20093e-10
2.11721e-10 -1.25733e-12 -9.09069e-11
7.87391e-12 1.42187e-10 -1.15457e-10
9.45393e-11 2.99415e-11 -1.36212e-10
4.78963e-11 4.35896e-10 -1.30382e-10
2.08191e-10 1.67295e-10 -1.75137e-10
3.17e-10 1.33819e-10 -2.19918e-10
-3.17e-10 -1.65359e-09 -2.09435e-11
-9.39959e-11 -1.9946e-09 -4.67537e-11
-5.75269e-12 2.99145e-10 2.32156e-10
-2.28464e-10 -8.26835e-10 2.24697e-10
-3.60876e-10 -2.71885e-11 2.91304e-11
-4.27001e-10 -6.24468e-11 1.00087e-10
-1.72023e-10 -5.01279e-10 6.12144e-11
-1.76567e-10 -7.95336e-10 6.01028e-11
5.89242e-11 -6.08773e-10 -4.26006e-11
8.46823e-11 -9.35107e-10 8.61832e-11
-6.78887e-11 -5.75465e-10 2.61793e-10
2.42714e-11 -6.45888e-10 1.60042e-10
-2.65711e-10 -5.24233e-10 7.93062e-11
3.85343e-11 -7.52079e-10 8.5952e-11
2.33352e-10 -2.50753e-10 6.80322e-11
3.53904e-10 -1.62839e-10 -1.29939e-10
2.58499e-10 -5.96251e-10 -1.20732e-10
6.1357e-11 -2.68913e-10 -1.17197e-10
2.63239e-10 -2.66483e-10 -1.56144e-10
2.8046e-10 -6.58217e-10 -2.40007e-10
3.17e-10 -2.00033e-10 -2.36998e-10
-3.17e-10 3.48187e-09 1.33891e-10
-1.87727e-10 4.94529e-09 -3.16866e-10
-4.70386e-10 1.14718e-09 -4.63972e-10
-2.50316e-10 1.03413e-09 6.31713e-11
1.57638e-10 -9.47902e-10 5.44727e-10
-4.43923e-11 1.97824e-10 -6.00091e-11
-4.21976e-10 4.09981e-10 1.64827e-10
-3.66496e-10 -8.2193e-10 2.72477e-10
1.57875e-10 -4.3016e-10 -3.09272e-10
1.65883e-10 5.19103e-10 -2.79529e-11
-4.9164e-10 1.54053e-10 2.44645e-10
-2.04705e-10 -9.50276e-10 1.52754e-10
1.6015e-10 -1.37057e-09 6.96655e-10
2.59386e-10 3.85023e-09 1.59339e-10
2.85747e-11 4.88632e-11 3.22068e-10
3.45489e-10 7.60077e-10 2.2382e-10
3.37289e-10 1.95315e-11 -1.63289e-10
-2.51353e-11 6.41998e-11 -9.06157e-10
-3.27664e-11 -5.41755e-10 -4.44063e-11
4.48025e-10 -9.49509e-10 -2.51991e-10
3.17e-10 -1.84985e-09 -3.20784e-10
-3.17e-10 5.41646e-09 1.8515e-10
-5.41818e-10 1.03582e-08 5.83451e-10
-9.01632e-10 5.23074e-09 8.73027e-10
-5.68323e-10 7.19447e-09 -8.79697e-10
-7.0786e-10 2.7865e-09 -1.11067e-09
-6.22084e-10 6.88125e-10 -1.70788e-09
-4.10383e-10 -3.38628e-10 -3.57201e-11
7.59786e-10 -3.53975e-10 5.63215e-10
6.2094e-10 9.74787e-09 -4.8363e-10
-9.47798e-10 1.18191e-08 -5.09429e-10
-1.32534e-09 4.8036e-10 -2.44796e-09
2.42249e-10 -5.17663e-10 -4.1057e-10
5.09844e-10 3.88561e-09 -7.56968e-10
1.76513e-09 1.28205e-08 -4.20722e-10
-9.29691e-10 1.94808e-09 -5.13302e-10
-1.3704e-09 1.83069e-09 -8.75686e-10
-6.40259e-11 -2.0615e-10 -1.13763e-11
9.84699e-10 4.33395e-10 8.92057e-10
3.61272e-10 1.50729e-09 -1.85084e-10
-3.9481e-10 1.87824e-09 -9.83825e-11
3.17e-10 3.39431e-09 -2.13347e-10
-3.17e-10 -3.873e-09 -1.84818e-09
1.00545e-09 -2.39479e-09 2.84461e-12
6.09703e-10 -3.84447e-09 1.0433e-09
-2.44576e-10 -1.45925e-08 1.70749e-09
-5.03031e-11 -2.60575e-09 1.08353e-10
-6.05498e-10 3.33795e-10 9.38093e-10
5.82371e-10 -8.85784e-10 -2.94715e-10
1.43558e-10 -1.39391e-09 -1.08569e-09
-2.91451e-10 -3.51126e-09 2.04164e-09
2.30883e-10 -3.22334e-09 -9.98364e-10
7.67217e-10 -1.26202e-09 -2.31431e-09
1.03054e-09 -1.83684e-09 -1.27881e-09
-6.64858e-10 3.7761e-09 -1.84673e-09
-8.70233e-10 -6.15554e-09 2.26078e-10
2.25772e-09 -9.54399e-09 -2.35498e-09
-1.10227e-09 -7.40701e-10 -8.44404e-10
-1.8999e-10 -1.39278e-09 1.70523e-10
1.29706e-09 -8.22402e-10 -1.81658e-10
4.83713e-10 -4.51171e-09 3.20104e-10
-4.97366e-10 6.56966e-09 2.24835e-09
3.17e-10 -2.42246e-09 -1.68921e-09
-3.17e-10 0 2.29909e-11
-1.04331e-10 0 -6.52268e-12
-2.08516e-10 0 1.11759e-11
-1.11811e-10 0 -4.29992e-11
-1.12237e-10 0 -3.63246e-11
-2.36237e-10 0 -9.2129e-12
-1.99546e-10 0 5.03527e-11
-1.65099e-10 0 6.27071e-11
-1.36106e-10 0 8.49491e-11
-6.46828e-11 0 8.90962e-11
6.31008e-11 0 7.05362e-11
1.76554e-10 0 -4.17544e-11
1.96957e-10 0 -5.16086e-11
1.08213e-10 0 -8.36379e-11
-3.10316e-11 0 -8.56758e-11
9.83767e-11 0 -5.23496e-11
6.98005e-11 0 -8.88527e-11
-1.77332e-11 0 -9.51654e-11
-6.11791e-12 0 -9.91022e-11
1.11099e-10 0 -1.27623e-10
3.17e-10 0 -1.50497e-10
-3.17e-10 3.76048e-10 5.47998e-11
-2.00101e-10 4.82887e-10 3.60456e-11
-1.63581e-10 5.09595e-10 2.84666e-11
-1.99227e-10 1.62249e-10 -2.74253e-11
-1.38157e-10 1.45551e-10 -5.38526e-11
-2.63117e-10 3.19012e-10 -4.57947e-11
-2.42709e-10 8.6381e-11 5.69816e-11
-1.46819e-10 2.81967e-11 1.81781e-10
-4.55291e-11 1.58048e-10 9.37607e-11
-5.48369e-11 2.14203e-10 3.80797e-11
-3.09301e-12 1.68402e-10 1.37822e-11
4.96912e-11 1.39946e-10 2.20632e-11
2.12153e-10 -9.35524e-11 2.64667e-12
1.68606e-10 4.34233e-10 -5.67281e-11
1.24275e-10 -6.52398e-11 -5.6566e-11
2.73043e-10 9.79026e-11 5.49076e-12
5.64001e-11 1.27091e-10 -1.40665e-10
6.72176e-11 2.32536e-10 4.50167e-11
3.10081e-10 4.13592e-10 -3.76222e-11
2.25379e-10 2.58492e-10 -9.95551e-11
3.17e-10 1.04358e-10 -6.2977e-11
-3.17e-10 -1.54782e-09 3.05351e-10
-1.16609e-10 -1.40326e-09 2.80331e-10
5.89704e-11 -3.45663e-10 1.21872e-10
-3.51232e-10 -9.25266e-10 7.36373e-11
-3.32321e-10 -2.49076e-10 1.07097e-10
-2.68568e-10 -2.27108e-10 4.38661e-11
-3.69828e-10 -4.86554e-10 2.54294e-11
-1.93887e-10 -2.93997e-10 1.49531e-10
1.40914e-11 -1.44128e-09 1.71184e-10
7.68805e-11 -5.82302e-10 4.69343e-11
1.12814e-10 -6.8344e-10 -3.18025e-11
3.75015e-11 -2.80483e-10 -3.97017e-11
1.23924e-10 -3.40901e-10 3.106e-11
4.00425e-11 -4.09612e-10 5.2283e-11
6.77629e-11 -4.49345e-10 -4.24151e-11
2.74371e-10 -4.59885e-10 1.19338e-10
3.45956e-10 -8.01417e-10 1.76814e-10
2.28907e-10 -1.14113e-09 -1.24679e-10
-4.53803e-11 -6.3854e-10 -8.91085e-11
2.93052e-10 -5.10901e-10 -1.88381e-10
3.17e-10 -2.40523e-10 -2.57031e-10
-3.17e-10 1.99928e-11 -1.97256e-10
-3.88393e-10 2.61675e-09 -1.22676e-11
-2.23455e-10 -1.10384e-09 3.09489e-10
-2.13896e-10 5.33205e-10 2.93317e-10
-4.80275e-10 1.73003e-10 6.34123e-10
-3.80509e-10 6.64545e-10 1.26117e-10
-4.85662e-10 4.59037e-10 1.29816e-10
-7.55803e-10 1.68844e-09 -6.0326e-10
-4.47328e-11 1.70129e-10 -2.58734e-10
-8.23429e-11 -5.94317e-10 -4.0386e-10
-6.48595e-11 7.46017e-10 2.32002e-10
2.04648e-10 -3.47227e-10 1.93549e-10
4.51931e-10 9.68318e-10 2.29099e-10
8.15757e-11 2.98155e-09 1.01643e-10
2.918e-10 1.373e-09 2.35274e-10
3.93533e-10 1.05465e-09 1.38372e-11
-3.40713e-10 5.31195e-10 1.08248e-10
1.24845e-10 -4.48141e-10 -7.70019e-10
4.01617e-10 1.87238e-09 -3.33458e-10
6.71915e-11 4.25772e-10 -4.07339e-11
3.17e-10 -7.81792e-10 3.6969e-10
-3.17e-10 1.16214e-08 6.61306e-10
3.99491e-12 4.69498e-09 -1.9227e-10
-6.86706e-10 1.79342e-09 -9.21406e-11
-1.35042e-09 2.51783e-09 -2.96692e-10
-2.28737e-09 9.71605e-10 -1.30074e-09
-3.77445e-10 -4.32596e-11 5.90165e-12
6.32198e-10 -5.01499e-10 3.94121e-10
7.4547e-10 8.43252e-09 5.277e-10
-4.75247e-10 8.65602e-09 -5.68846e-10
-1.05481e-09 2.24814e-09 -2.15107e-09
-5.33676e-11 -1.42695e-09 -1.61624e-10
1.32657e-09 -5.74171e-10 2.30577e-09
1.24872e-09 1.08517e-08 1.2975e-10
-6.66059e-10 7.91702e-09 -8.01683e-10
-4.02596e-10 9.83112e-10 -1.1468e-09
9.18431e-11 -6.83556e-10 -2.49418e-10
5.07228e-10 9.80101e-10 1.40328e-09
8.56866e-10 5.98168e-09 2.0908e-10
3.24701e-10 9.88045e-09 -5.22251e-10
3.51473e-10 7.0521e-09 2.82208e-10
3.17e-10 2.55726e-09 4.11545e-10
-3.17e-10 -8.59568e-09 5.36352e-10
7.01471e-10 -6.26368e-09 1.85179e-09
-6.31843e-12 6.09759e-09 -1.4385e-09
-2.1342e-09 -1.74988e-08 -1.14448e-09
-5.97507e-10 -4.94568e-10 -2.37944e-10
-1.3355e-10 -4.93236e-10 7.5008e-11
3.20394e-09 1.43631e-09 6.7759e-11
5.25629e-10 5.76673e-09 4.25288e-09
-9.83472e-10 -7.83462e-09 -7.36453e-10
-7.778e-11 -1.15316e-10 6.8508e-10
9.71062e-11 -9.82651e-11 2.23895e-10
-7.29695e-11 2.89292e-09 -9.42768e-10
-2.62462e-10 -1.27179e-08 6.7073e-10
1.40759e-09 -4.05751e-09 -3.12127e-09
1.51685e-10 1.71334e-09 -1.54854e-09
-3.9377e-10 8.72012e-10 4.20342e-10
1.11416e-09 2.29332e-09 -8.57099e-10
5.02989e-10 7.39323e-09 -3.1576e-09
5.63983e-10 -8.2498e-09 -7.45881e-10
-1.57345e-10 3.9213e-09 -3.01972e-09
3.17e-10 9.05951e-09 -8.65637e-10
-3.17e-10 0 -2.76803e-11
-1.18669e-10 0 -3.56361e-11
-7.73935e-11 0 1.46765e-11
-1.01982e-10 0 -8.29021e-12
-2.12948e-10 0 -4.42873e-11
-9.54351e-11 0 -6.73643e-11
-1.83826e-10 0 -4.28637e-12
-1.07919e-10 0 9.15247e-12
-9.54126e-11 0 7.21865e-11
-8.12432e-11 0 4.70639e-11
4.63811e-11 0 7.93897e-11
1.25997e-10 0 -2.43514e-11
7.87232e-11 0 -3.51139e-11
1.1623e-10 0 -2.40406e-11
6.29342e-11 0 2.85602e-11
1.28484e-10 0 -8.27031e-12
2.90333e-11 0 -8.90887e-11
9.68109e-11 0 -8.23093e-11
2.63418e-10 0 -1.43268e-10
1.80735e-10 0 -7.38864e-11
3.17e-10 0 7.14252e-12
-3.17e-10 2.27929e-10 -3.95979e-11
-1.85219e-10 2.78935e-10 -3.3914e-11
-1.34334e-10 3.23285e-10 -5.7239e-11
-1.90528e-10 3.70949e-10 -8.1536e-12
-2.8177e-10 2.22829e-10 -3.0722e-11
-2.76321e-10 2.41287e-10 2.94417e-11
-1.35879e-10 1.49919e-10 3.13731e-11
-7.48853e-11 1.95112e-10 7.04224e-11
-6.1135e-11 2.16837e-10 1.0255e-10
-3.8506e-11 9.83339e-11 8.2106e-11
-2.74105e-11 2.54342e-10 6.96214e-11
5.24701e-11 6.5388e-11 2.95413e-11
-4.41571e-12 7.21667e-11 3.62664e-11
1.874e-10 1.5765e-10 -3.85565e-11
9.45428e-11 1.02188e-10 -3.06551e-11
2.31098e-10 3.7795e-11 1.23867e-10
2.38302e-10 6.2818e-10 6.19357e-11
2.61933e-10 7.08968e-10 -1.12113e-10
2.41769e-10 2.10536e-10 -6.53045e-11
1.03422e-10 -1.31459e-11 -4.78779e-11
3.17e-10 2.9367e-11 -3.10022e-11
-3.17e-10 2.975e-10 2.38586e-10
-3.30589e-10 -8.00067e-10 1.26013e-10
-3.79632e-10 1.9521e-10 1.13209e-10
-4.19916e-10 3.18551e-10 -9.40403e-11
-2.38632e-10 -5.77507e-10 -3.36127e-11
-1.15021e-10 -7.13262e-10 -8.60232e-11
-7.28194e-11 -9.4471e-10 1.34576e-10
-1.27376e-10 -3.7459e-10 1.50867e-10
-8.9441e-11 -3.72217e-10 1.60228e-10
-1.15433e-10 -7.51375e-10 1.55908e-10
-1.8178e-11 -5.72791e-10 2.72436e-10
8.42287e-11 -2.0567e-10 1.55401e-11
1.41281e-10 -8.32398e-10 8.62516e-11
1.95966e-10 -3.50319e-10 -8.67314e-12
2.41315e-10 -1.4232e-10 1.18286e-10
2.94758e-10 -1.83453e-10 2.79043e-10
4.58815e-10 -2.68929e-10 3.37485e-11
1.99489e-10 -2.26643e-09 -7.6793e-11
-3.66773e-11 -4.65121e-10 -9.07944e-12
1.38505e-10 -4.08595e-10 -2.70824e-11
3.17e-10 -1.75011e-09 -3.12646e-10
-3.17e-10 -3.59184e-10 4.98631e-10
-8.46364e-11 3.93761e-10 6.00599e-10
-4.23981e-10 1.63762e-09 6.36591e-10
-3.43328e-10 8.01654e-10 8.47319e-10
-3.45518e-10 4.10834e-10 6.39758e-11
1.01121e-10 7.47295e-10 1.91423e-10
-7.25895e-10 1.32556e-09 2.05459e-10
-2.2557e-10 -1.00269e-09 6.72206e-11
4.7258e-10 5.90073e-10 3.45429e-10
1.12391e-10 5.71319e-10 2.10533e-10
2.43449e-10 1.54516e-09 -6.84485e-10
5.31993e-10 7.58191e-10 -3.80699e-11
3.8536e-10 1.89718e-10 -4.42233e-11
2.938e-10 -5.44989e-11 -9.06883e-12
2.33033e-10 -3.88e-11 -1.70446e-10
2.07093e-10 7.17904e-10 -3.85979e-11
5.14602e-10 3.43514e-09 1.79719e-10
-3.3749e-10 -1.16963e-09 2.11085e-10
6.4107e-10 -7.68578e-10 -2.00728e-10
2.53802e-10 -1.11505e-10 -1.37058e-10
3.17e-10 -7.91963e-10 -1.29002e-10
-3.17e-10 1.03038e-09 -8.64776e-10
-5.22234e-11 5.14507e-09 -1.13533e-09
-5.78566e-10 1.07215e-08 4.30887e-10
-5.37186e-10 7.33635e-10 -1.07759e-09
-1.564e-11 6.49733e-10 -3.52124e-10
1.22489e-09 -1.96926e-09 1.5963e-09
8.93195e-10 9.79749e-09 3.51816e-10
-5.53511e-10 -1.46775e-12 -2.37478e-10
-3.71571e-10 2.62316e-09 -3.65318e-10
2.62367e-10 -6.30926e-10 3.99913e-10
6.91263e-10 -3.36235e-10 1.41373e-09
6.85795e-10 1.19778e-08 2.13017e-10
-9.13059e-10 1.02426e-08 -8.69007e-10
-5.2571e-10 1.3752e-09 -8.8557e-10
4.43225e-10 -4.7885e-10 -3.83312e-10
7.22511e-10 8.16157e-10 4.89191e-10
3.90714e-10 1.11099e-08 8.19235e-11
1.80679e-10 8.72713e-10 1.59861e-10
6.09381e-10 2.11816e-09 -3.88817e-10
2.78927e-10 2.22415e-09 -1.87528e-09
3.17e-10 2.19908e-09 -8.48127e-10
-3.17e-10 -2.72392e-09 -2.77991e-09
-1.50449e-09 -1.10405e-08 -7.58102e-10
-1.60438e-09 -4.91158e-09 -4.70555e-10
3.15773e-11 -4.37493e-10 4.46977e-10
2.24462e-10 3.84835e-10 -1.9818e-10
-4.07734e-10 5.37322e-09 -6.89791e-10
-5.78557e-11 -1.34094e-08 2.8205e-09
2.35457e-09 -1.34467e-08 -1.7296e-09
-1.01403e-09 -1.78826e-09 -1.23952e-09
1.2533e-10 5.90661e-10 3.38108e-10
-3.34369e-10 -4.5151e-10 6.70448e-10
-2.89446e-10 -1.26722e-08 -1.25872e-10
1.99905e-09 -6.10542e-09 -1.39335e-09
-7.54764e-10 1.39443e-09 -7.83364e-10
3.74051e-10 -1.20987e-09 2.76832e-10
-9.45779e-10 2.54636e-09 5.99768e-10
1.25131e-09 -1.82321e-08 2.12279e-09
3.42524e-10 -8.93113e-09 -1.12995e-09
6.40161e-10 3.09962e-09 -1.09554e-09
-1.46686e-10 -3.65477e-09 -2.27407e-10
3.17e-10 1.42633e-10 -2.11117e-09
-3.17e-10 0 4.58983e-11
-1.94852e-10 0 6.25676e-11
-9.16835e-11 0 7.53594e-11
-8.1302e-11 0 4.46263e-11
-9.27561e-11 0 -5.14051e-12
-1.32842e-11 0 -5.81046e-11
6.1687e-12 0 -5.11498e-11
5.49514e-12 0 5.34017e-11
-7.87817e-11 0 6.72611e-11
-1.26412e-10 0 2.98653e-11
-4.37857e-11 0 1.74753e-11
3.84167e-11 0 5.14014e-11
1.111e-10 0 3.32152e-11
5.04588e-11 0 4.65381e-12
1.06368e-10 0 4.0662e-12
2.9373e-10 0 -5.9605e-11
1.58338e-10 0 -2.92631e-11
2.08484e-10 0 -9.41972e-11
1.6284e-11 0 -5.51914e-11
1.13451e-10 0 1.17294e-11
3.17e-10 0 2.20889e-11
-3.17e-10 8.55053e-11 -8.48454e-12
-5.30183e-11 2.64485e-10 -4.64954e-11
-2.13901e-10 1.65313e-10 -1.93501e-11
-2.12746e-10 4.07887e-10 2.31077e-11
-1.94712e-10 2.44154e-10 5.96797e-11
-1.7684e-10 3.9501e-10 2.48017e-11
-1.09199e-10 2.0571e-10 5.82748e-12
-5.75405e-11 2.16853e-10 3.96034e-11
2.67298e-11 2.86637e-10 7.76198e-11
8.26875e-11 3.56238e-10 5.71397e-11
-3.182e-11 7.17599e-10 1.84752e-11
7.46312e-11 2.27182e-10 2.74625e-11
1.17281e-10 7.24916e-11 -5.81849e-12
1.04234e-10 3.05365e-10 3.36885e-11
1.14241e-10 1.77638e-10 9.47784e-11
2.16916e-10 5.94171e-10 3.69051e-11
2.2249e-10 1.67071e-10 -7.92889e-11
4.04466e-11 1.74505e-10 -1.41541e-10
1.62059e-10 -2.66158e-10 -6.10226e-11
4.06493e-10 -1.64626e-10 7.1956e-12
3.17e-10 6.35351e-11 5.25371e-11
-3.17e-10 3.51626e-10 -2.05769e-10
-2.2206e-10 -6.41456e-11 -1.15299e-11
-3.5191e-10 -2.16598e-10 3.68654e-11
-3.92666e-10 -4.70635e-11 -9.14804e-13
-3.39968e-10 -3.13303e-10 1.23435e-10
-1.90273e-10 -7.41644e-10 2.16671e-10
-6.07764e-12 -5.01293e-10 1.21792e-10
-8.08278e-11 -3.94728e-10 1.48194e-11
1.6309e-11 -3.36727e-10 1.01902e-10
1.17803e-10 -2.99712e-10 1.27887e-10
-3.08922e-11 -3.17502e-10 -8.3692e-11
-1.26343e-11 -3.13069e-10 6.68836e-11
2.18262e-10 -4.64226e-10 7.59484e-11
1.50075e-10 -2.56013e-10 1.21077e-10
2.95734e-10 -2.61126e-10 -3.29016e-11
2.65272e-10 -2.30916e-10 -3.09728e-10
1.17733e-10 -1.01854e-09 -3.35762e-11
2.16379e-10 -1.82131e-10 -2.47869e-10
2.02209e-10 -2.47837e-10 -1.22805e-10
-9.6424e-11 -4.75902e-10 1.53651e-11
3.17e-10 -1.74843e-09 9.96739e-11
-3.17e-10 -3.39423e-12 1.99307e-10
-5.54738e-10 8.97945e-10 1.6791e-10
-4.4657e-10 9.74326e-10 1.09702e-11
-8.41158e-11 6.19337e-10 1.31347e-10
-2.48899e-10 4.05153e-10 -3.79275e-10
2.9342e-10 3.93741e-09 -3.45952e-11
-2.60061e-10 9.25027e-11 9.63757e-11
-3.03411e-10 -3.38301e-10 1.59956e-10
1.79884e-10 9.29905e-10 1.24435e-10
-1.02375e-09 1.24787e-09 3.35207e-10
-1.08861e-10 -1.11466e-09 1.71856e-10
4.01429e-10 2.55814e-09 -1.51543e-10
-8.01363e-11 -5.46376e-10 -3.23412e-10
6.0255e-11 -2.42426e-10 -4.64804e-11
1.22624e-10 6.50721e-11 -3.70246e-10
1.24558e-10 -2.89821e-10 -4.0093e-10
2.12568e-10 1.77762e-09 -1.95918e-10
-1.90244e-11 9.05887e-10 4.45225e-10
2.4824e-10 7.67351e-11 3.24855e-10
3.70478e-10 3.55268e-10 1.1835e-10
3.17e-10 1.01243e-09 1.25339e-10
-3.17e-10 1.63233e-09 -6.68232e-11
2.2849e-10 1.67131e-09 -1.32973e-09
-4.36108e-10 1.02574e-09 -4.2224e-10
-4.61002e-10 -6.44696e-10 2.78004e-10
6.405e-10 -9.57713e-10 1.49207e-09
5.78022e-10 9.67797e-09 7.69124e-10
-1.59214e-09 9.9079e-09 -8.42901e-10
-5.9853e-10 1.14024e-09 -8.36797e-10
4.49477e-11 -1.12951e-09 -3.89135e-13
7.55652e-10 4.23274e-11 1.46182e-09
1.00483e-09 8.84283e-10 3.80294e-10
-8.10627e-10 1.1396e-08 -6.07753e-10
-6.43743e-10 1.93838e-09 -7.08658e-10
2.29611e-10 -3.39786e-10 -1.39508e-10
4.95222e-10 8.61462e-10 1.02424e-09
1.12648e-10 6.1401e-09 1.98225e-10
-4.90271e-10 1.0462e-08 9.05802e-10
4.98262e-10 9.83559e-09 -5.02355e-10
7.34043e-10 4.92971e-09 -5.18177e-10
8.3767e-10 4.93797e-09 -1.56882e-09
3.17e-10 7.81479e-09 -4.21813e-10
-3.17e-10 1.11249e-10 1.00849e-09
1.15835e-09 -3.69694e-09 7.00095e-10
-7.6642e-10 -1.99507e-11 5.59377e-10
-3.73153e-10 -3.39979e-10 5.08305e-11
-2.99974e-10 1.69945e-09 1.49587e-10
-2.3394e-10 -8.57094e-09 3.27015e-10
7.33328e-10 -7.74531e-09 -2.99946e-11
-8.88419e-10 2.69409e-09 -1.24799e-09
-3.50883e-10 -1.11258e-09 -2.00108e-10
8.68293e-11 1.60283e-09 -4.76197e-10
-6.3729e-10 -4.72795e-09 -1.70054e-09
9.86953e-10 -8.473e-09 -7.40527e-10
-7.98024e-10 4.91804e-09 1.64612e-10
9.18792e-11 -6.7418e-10 1.62263e-10
1.16091e-09 -5.13375e-10 4.38933e-10
1.29433e-09 1.05819e-08 -5.57383e-10
8.55236e-10 -8.52394e-09 5.49891e-10
8.27593e-10 1.06092e-08 -4.46595e-10
2.59877e-10 -9.89243e-09 -4.27872e-10