<?xml version="1.0"?>
<VTKFile type="StructuredGrid"  version="0.1" byte_order="LittleEndian" compressor="vtkZLibDataCompressor">
  <StructuredGrid WholeExtent="0 20 0 5 0 40">
    <Piece Extent="0 20 0 5 0 40">
      <PointData Vectors="velocity">
        <DataArray type="Float64" Name="velocity" NumberOfComponents="3" format="ascii">
-3.17e-10 0 0
-2.85627e-10 0 0
-2.51547e-10 0 0
-2.2459e-10 0 0
-1.90586e-10 0 0
-1.54829e-10 0 0
-1.26146e-10 0 0
-9.46246e-11 0 0
-6.03528e-11 0 0
-3.02898e-11 0 0
2.91525e-13 0 0
3.43074e-11 0 0
6.5661e-11 0 0
9.64028e-11 0 0
1.30128e-10 0 0
1.59024e-10 0 0
1.93032e-10 0 0
2.22995e-10 0 0
2.55073e-10 0 0
2.85938e-10 0 0
3.17e-10 0 0
-3.17e-10 -1.34127e-11 0
-2.86269e-10 -1.06209e-11 0
-2.55149e-10 -1.11295e-11 0
-2.22523e-10 -1.04191e-11 0
-1.89809e-10 -1.30665e-11 0
-1.58262e-10 -1.0505e-11 0
-1.27756e-10 -1.01841e-11 0
-9.50398e-11 -1.04027e-11 0
-6.14686e-11 -8.61995e-12 0
-3.22506e-11 -1.06201e-11 0
-5.93226e-14 -1.0108e-11 0
3.24909e-11 -1.00061e-11 0
6.19819e-11 -1.0412e-11 0
9.83882e-11 -9.83084e-12 0
1.27606e-10 -1.00373e-11 0
1.60835e-10 -1.17591e-11 0
1.92556e-10 -1.35962e-11 0
2.24539e-10 -1.08212e-11 0
2.55639e-10 -1.22002e-11 0
2.89292e-10 -1.32689e-11 0
3.17e-10 -1.04662e-11 0
-3.17e-10 -2.39602e-11 0
-2.85437e-10 -2.43786e-11 0
-2.563e-10 -2.16462e-11 0
-2.25695e-10 -2.02232e-11 0
-1.91478e-10 -2.57757e-11 0
-1.58255e-10 -1.98546e-11 0
-1.30069e-10 -1.99587e-11 0
-9.63245e-11 -1.7646e-11 0
-6.45844e-11 -1.94992e-11 0
-3.07142e-11 -2.24604e-11 0
-9.85825e-13 -1.90706e-11 0
2.94918e-11 -2.147e-11 0
6.39034e-11 -1.93217e-11 0
9.50731e-11 -2.17593e-11 0
1.28072e-10 -1.95285e-11 0
1.60453e-10 -2.1371e-11 0
1.8974e-10 -2.43254e-11 0
2.22023e-10 -2.1257e-11 0
2.53559e-10 -2.39094e-11 0
2.85418e-10 -2.24879e-11 0
3.17e-10 -2.03254e-11 0
-3.17e-10 -3.6761e-11 0
-2.84676e-10 -3.37444e-11 0
-2.53787e-10 -3.35148e-11 0
-2.19264e-10 -3.54665e-11 0
-1.92762e-10 -3.38654e-11 0
-1.61475e-10 -2.95611e-11 0
-1.28322e-10 -3.06828e-11 0
-9.65167e-11 -3.06228e-11 0
-6.1125e-11 -3.02199e-11 0
-3.25532e-11 -3.04956e-11 0
-1.29084e-12 -3.04204e-11 0
3.23022e-11 -2.99565e-11 0
6.45524e-11 -3.29528e-11 0
9.53403e-11 -3.24942e-11 0
1.28635e-10 -3.11497e-11 0
1.60327e-10 -3.02752e-11 0
1.9311e-10 -3.24786e-11 0
2.2273e-10 -3.33418e-11 0
2.54675e-10 -3.51867e-11 0
2.84966e-10 -3.48974e-11 0
3.17e-10 -3.28482e-11 0
-3.17e-10 -4.62773e-11 0
-2.86151e-10 -4.61621e-11 0
-2.52331e-10 -4.52953e-11 0
-2.20996e-10 -4.55487e-11 0
-1.91506e-10 -4.60747e-11 0
-1.60438e-10 -4.11518e-11 0
-1.28423e-10 -3.9401e-11 0
-9.89454e-11 -4.17119e-11 0
-6.27282e-11 -4.27157e-11 0
-3.22051e-11 -4.1294e-11 0
8.04952e-14 -4.04746e-11 0
3.30183e-11 -4.28698e-11 0
6.2608e-11 -4.5456e-11 0
9.6201e-11 -4.40228e-11 0
1.25781e-10 -4.25768e-11 0
1.60764e-10 -4.13591e-11 0
1.91935e-10 -4.29694e-11 0
2.19812e-10 -4.44314e-11 0
2.5187e-10 -4.56375e-11 0
2.83463e-10 -4.3568e-11 0
3.17e-10 -4.5441e-11 0
-3.17e-10 -5.63328e-11 0
-2.83939e-10 -5.87391e-11 0
-2.54092e-10 -5.87011e-11 0
-2.20679e-10 -5.84772e-11 0
-1.94798e-10 -5.04179e-11 0
-1.60343e-10 -4.97144e-11 0
-1.27827e-10 -5.20435e-11 0
-9.36909e-11 -5.08109e-11 0
-6.44475e-11 -5.49683e-11 0
-3.13589e-11 -5.36305e-11 0
-2.58526e-13 -5.15044e-11 0
3.07119e-11 -5.30136e-11 0
6.08957e-11 -5.32214e-11 0
9.47321e-11 -5.15688e-11 0
1.26493e-10 -5.17907e-11 0
1.57835e-10 -5.04877e-11 0
1.93513e-10 -5.20894e-11 0
2.26223e-10 -5.8141e-11 0
2.54525e-10 -5.42113e-11 0
2.84295e-10 -5.35203e-11 0
3.17e-10 -5.13294e-11 0
-3.17e-10 0 1.44008e-13
-2.87367e-10 0 -2.03455e-13
-2.54587e-10 0 -2.49353e-13
-2.23446e-10 0 1.23192e-13
-1.9194e-10 0 -1.36923e-13
-1.60217e-10 0 9.94381e-14
-1.28989e-10 0 -1.13e-13
-9.87375e-11 0 -3.84755e-13
-6.66183e-11 0 -2.40754e-14
-3.38193e-11 0 9.71886e-14
4.71735e-13 0 3.21489e-13
3.3114e-11 0 1.70604e-13
6.57451e-11 0 3.16827e-13
9.60654e-11 0 -1.61224e-13
1.27718e-10 0 -1.84106e-13
1.59527e-10 0 -1.41077e-13
1.9134e-10 0 -1.22593e-14
2.25396e-10 0 2.0312e-13
2.53826e-10 0 6.94381e-15
2.87905e-10 0 -2.32507e-13
3.17e-10 0 -3.7588e-13
-3.17e-10 -8.31129e-12 -1.70445e-15
-2.86356e-10 -1.13874e-11 5.44428e-14
-2.55088e-10 -1.24649e-11 9.79326e-14
-2.23879e-10 -1.21688e-11 3.27432e-13
-1.90185e-10 -1.22335e-11 2.94622e-13
-1.60212e-10 -1.16205e-11 6.58675e-14
-1.30173e-10 -1.14739e-11 -1.95941e-13
-9.59712e-11 -1.05691e-11 -6.1368e-14
-6.49743e-11 -1.05325e-11 1.28547e-13
-3.09342e-11 -1.01771e-11 1.91042e-13
1.35623e-13 -9.60576e-12 7.26985e-14
3.08978e-11 -1.07203e-11 6.61927e-14
6.26259e-11 -8.86119e-12 -2.52647e-14
9.48789e-11 -9.82508e-12 -5.49139e-14
1.28721e-10 -1.3042e-11 9.90364e-14
1.59966e-10 -8.97046e-12 8.51467e-14
1.90219e-10 -1.1769e-11 -7.04748e-14
2.23367e-10 -1.14817e-11 -2.74851e-15
2.54915e-10 -1.22872e-11 -5.53984e-14
2.85713e-10 -1.09927e-11 -7.60356e-14
3.17e-10 -7.16134e-12 9.29134e-14
-3.17e-10 -2.25585e-11 2.53471e-13
-2.8489e-10 -2.207e-11 -6.71899e-14
-2.55161e-10 -2.34055e-11 -5.40264e-14
-2.22611e-10 -2.25236e-11 2.54935e-14
-1.91819e-10 -2.14255e-11 3.07116e-14
-1.60638e-10 -2.13549e-11 -1.63296e-13
-1.29663e-10 -2.24959e-11 -1.94837e-13
-9.7855e-11 -2.20132e-11 -7.66903e-14
-6.44077e-11 -2.10481e-11 7.54271e-14
-3.1738e-11 -2.06377e-11 7.40291e-14
-3.56027e-13 -1.93878e-11 8.62485e-14
3.12287e-11 -2.25421e-11 -2.12027e-13
6.47376e-11 -2.12978e-11 -1.51201e-13
9.66518e-11 -2.00921e-11 4.42257e-14
1.28879e-10 -2.07764e-11 -1.84504e-13
1.59574e-10 -2.12135e-11 1.55163e-14
1.91597e-10 -2.22189e-11 5.5927e-14
2.22607e-10 -2.19504e-11 -2.51539e-13
2.53108e-10 -2.19502e-11 -1.43008e-13
2.86858e-10 -2.29882e-11 -1.67003e-13
3.17e-10 -2.12859e-11 6.49917e-14
-3.17e-10 -3.15056e-11 -1.34829e-13
-2.86121e-10 -3.32624e-11 -1.61606e-13
-2.56167e-10 -3.37436e-11 -1.74035e-13
-2.23974e-10 -3.31872e-11 -9.63979e-15
-1.92165e-10 -3.29912e-11 1.68905e-13
-1.59545e-10 -3.04359e-11 -2.47876e-14
-1.29416e-10 -3.24839e-11 -6.55962e-14
-9.64931e-11 -3.10184e-11 -4.45664e-13
-6.51707e-11 -3.3645e-11 1.1453e-13
-3.31305e-11 -3.00005e-11 2.6132e-13
-9.35843e-13 -2.94931e-11 1.31824e-13
3.21789e-11 -3.29279e-11 -2.12035e-13
6.34598e-11 -3.16699e-11 -7.10708e-14
9.75156e-11 -3.16164e-11 2.21435e-13
1.27571e-10 -3.04711e-11 5.77067e-15
1.62076e-10 -3.1664e-11 -2.06218e-13
1.92816e-10 -3.16018e-11 -1.10016e-13
2.24339e-10 -3.22091e-11 -1.33018e-13
2.5655e-10 -3.14515e-11 -1.30608e-13
2.84857e-10 -3.22927e-11 -2.64624e-13
3.17e-10 -3.17614e-11 -1.76403e-13
-3.17e-10 -4.47238e-11 -3.3196e-13
-2.85036e-10 -4.45377e-11 -1.48483e-13
-2.54335e-10 -4.43915e-11 2.10881e-13
-2.25959e-10 -4.51406e-11 2.85525e-13
-1.92156e-10 -4.28162e-11 1.65862e-13
-1.61481e-10 -3.78908e-11 1.63382e-13
-1.28192e-10 -4.14885e-11 -9.29319e-14
-9.79039e-11 -4.13698e-11 -1.93303e-13
-6.26937e-11 -4.3794e-11 5.47126e-14
-3.22372e-11 -4.02189e-11 9.80626e-14
-3.1656e-13 -4.19693e-11 -7.80927e-14
3.07969e-11 -4.22658e-11 -9.70746e-14
6.36936e-11 -4.25049e-11 -1.43769e-13
9.58766e-11 -4.30043e-11 8.93905e-14
1.28425e-10 -4.13043e-11 -6.68296e-14
1.59596e-10 -4.1214e-11 -1.98521e-13
1.91308e-10 -4.37776e-11 3.19565e-14
2.23727e-10 -4.41225e-11 2.04488e-13
2.55843e-10 -4.35741e-11 2.36598e-13
2.85236e-10 -4.21346e-11 -1.72086e-13
3.17e-10 -4.43818e-11 -3.80101e-13
-3.17e-10 -5.14475e-11 -3.25977e-13
-2.84433e-10 -5.61186e-11 -4.16454e-13
-2.55783e-10 -5.13299e-11 -7.73466e-14
-2.24864e-10 -5.69441e-11 3.87909e-13
-1.94176e-10 -5.20653e-11 1.24205e-13
-1.58825e-10 -5.19709e-11 4.20195e-13
-1.2812e-10 -5.13093e-11 -4.87254e-13
-9.37366e-11 -5.21724e-11 9.29483e-14
-6.30255e-11 -5.27335e-11 -2.58307e-13
-3.22222e-11 -4.88992e-11 -2.6079e-13
-5.73739e-13 -5.3706e-11 -4.09976e-14
3.07788e-11 -5.20025e-11 -1.41396e-13
6.37352e-11 -5.47213e-11 -3.23014e-13
9.63367e-11 -5.4814e-11 -2.40625e-13
1.28488e-10 -5.20674e-11 -5.68014e-14
1.61764e-10 -5.2034e-11 3.374e-13
1.9059e-10 -5.48321e-11 2.04772e-13
2.23657e-10 -5.3007e-11 1.78543e-13
2.53401e-10 -5.60153e-11 6.49162e-13
2.84667e-10 -5.48521e-11 3.15598e-13
3.17e-10 -5.87498e-11 -3.66338e-13
-3.17e-10 0 6.43189e-13
-2.86904e-10 0 1.90168e-13
-2.53642e-10 0 2.24319e-13
-2.19807e-10 0 3.94917e-13
-1.8923e-10 0 9.31904e-14
-1.55054e-10 0 -5.43306e-14
-1.25327e-10 0 -1.33271e-13
-9.52352e-11 0 1.74666e-13
-6.23485e-11 0 3.45985e-14
-3.07861e-11 0 -2.52673e-13
1.08098e-12 0 1.82649e-13
3.47785e-11 0 7.4545e-14
6.65845e-11 0 -9.32951e-14
9.77224e-11 0 2.74888e-14
1.29069e-10 0 2.27859e-13
1.61587e-10 0 3.83479e-14
1.89649e-10 0 -1.79574e-13
2.22074e-10 0 -8.08379e-14
2.55086e-10 0 -4.32048e-13
2.86765e-10 0 -4.51854e-13
3.17e-10 0 -5.45465e-13
-3.17e-10 -1.22889e-11 1.20133e-13
-2.85533e-10 -1.03962e-11 1.01199e-13
-2.53939e-10 -1.03827e-11 4.99525e-14
-2.24376e-10 -1.02081e-11 -1.44846e-13
-1.89584e-10 -1.18151e-11 5.48227e-14
-1.56784e-10 -1.07035e-11 4.18783e-14
-1.27273e-10 -1.06034e-11 -2.17925e-14
-9.61333e-11 -1.00217e-11 1.97612e-13
-6.34775e-11 -1.0963e-11 5.18048e-14
-3.17726e-11 -9.62556e-12 4.02157e-14
2.90483e-13 -8.21371e-12 1.08276e-13
3.11153e-11 -9.35212e-12 1.8707e-13
6.39751e-11 -9.37826e-12 6.41467e-14
9.60947e-11 -9.26476e-12 -4.55532e-14
1.27647e-10 -1.21913e-11 -7.43441e-14
1.61603e-10 -1.13141e-11 8.52038e-14
1.93552e-10 -1.20203e-11 -1.94403e-13
2.23519e-10 -9.96327e-12 -1.29037e-13
2.54216e-10 -1.25099e-11 -1.36687e-13
2.86817e-10 -1.23953e-11 -2.62153e-13
3.17e-10 -1.22159e-11 -3.91259e-13
-3.17e-10 -2.51778e-11 -1.61775e-13
-2.85314e-10 -2.49796e-11 -1.24528e-13
-2.55954e-10 -2.29926e-11 -2.03349e-13
-2.23171e-10 -2.45122e-11 -1.41395e-13
-1.90845e-10 -2.2313e-11 -3.00847e-13
-1.61218e-10 -1.98566e-11 -1.23329e-13
-1.3043e-10 -2.06051e-11 2.31701e-13
-9.6353e-11 -1.9086e-11 1.99951e-13
-6.46794e-11 -2.05516e-11 -1.1544e-13
-3.13166e-11 -2.07126e-11 -2.71815e-15
-3.20014e-13 -1.96808e-11 2.07979e-13
3.23526e-11 -1.99555e-11 2.51623e-14
6.5095e-11 -2.11488e-11 4.13684e-14
9.64414e-11 -2.02057e-11 -5.43746e-15
1.29477e-10 -2.10788e-11 -6.51874e-14
1.60181e-10 -2.00972e-11 2.63933e-13
1.90245e-10 -2.30905e-11 -6.34003e-14
2.22581e-10 -2.23031e-11 -8.18581e-14
2.54885e-10 -2.32784e-11 -2.14646e-13
2.85724e-10 -2.4354e-11 -1.1739e-13
3.17e-10 -2.25565e-11 -2.1596e-13
-3.17e-10 -3.53489e-11 -2.09753e-13
-2.86604e-10 -3.32874e-11 -1.67654e-13
-2.55089e-10 -3.63624e-11 -2.46814e-13
-2.22638e-10 -3.39315e-11 1.52662e-13
-1.91665e-10 -3.39196e-11 -6.99813e-15
-1.59054e-10 -3.06688e-11 4.89235e-14
-1.25818e-10 -3.01479e-11 1.43134e-13
-9.6497e-11 -3.09284e-11 4.55883e-15
-6.28853e-11 -3.16099e-11 -5.59136e-14
-3.27658e-11 -3.13806e-11 7.5367e-14
-9.06237e-14 -2.93327e-11 -1.91822e-13
3.15955e-11 -3.08171e-11 -1.94932e-13
6.39685e-11 -3.02049e-11 -7.30176e-14
9.51588e-11 -3.22922e-11 1.19078e-13
1.26548e-10 -3.1309e-11 2.55987e-14
1.59377e-10 -3.19951e-11 -2.11156e-14
1.91939e-10 -3.07233e-11 -1.61429e-13
2.23802e-10 -3.3921e-11 -6.09289e-14
2.53465e-10 -3.3727e-11 -3.67728e-14
2.85626e-10 -3.55963e-11 1.58245e-14
3.17e-10 -3.33782e-11 -1.1305e-13
-3.17e-10 -4.32499e-11 -2.8286e-13
-2.86367e-10 -4.56872e-11 -1.38081e-13
-2.5457e-10 -4.51228e-11 -2.61421e-13
-2.22408e-10 -4.59112e-11 1.66088e-13
-1.93147e-10 -4.42457e-11 2.09394e-13
-1.61133e-10 -4.18658e-11 1.23888e-13
-1.28904e-10 -4.15058e-11 2.03171e-13
-9.64189e-11 -4.16842e-11 -1.61646e-13
-6.30218e-11 -4.19755e-11 -5.48155e-14
-3.16065e-11 -4.16675e-11 6.20674e-14
1.3557e-13 -4.10067e-11 -1.34206e-13
3.2307e-11 -4.1605e-11 -1.57346e-13
6.15601e-11 -4.35316e-11 -2.24433e-13
9.56758e-11 -4.2695e-11 -1.38837e-14
1.2669e-10 -4.10476e-11 -3.69914e-14
1.59268e-10 -4.25904e-11 -9.63925e-14
1.92187e-10 -4.12056e-11 2.88478e-14
2.22066e-10 -4.47672e-11 1.15896e-13
2.53783e-10 -4.44351e-11 6.5112e-14
2.83816e-10 -4.38313e-11 1.33523e-13
3.17e-10 -4.66776e-11 2.54591e-13
-3.17e-10 -5.18095e-11 5.63319e-13
-2.86106e-10 -5.78068e-11 -2.08963e-13
-2.55889e-10 -5.56985e-11 -1.36642e-14
-2.23845e-10 -5.7644e-11 -1.61599e-13
-1.91917e-10 -5.52945e-11 4.61117e-13
-1.59747e-10 -5.12904e-11 -1.43623e-13
-1.25154e-10 -5.23566e-11 -4.22658e-13
-9.6069e-11 -5.40364e-11 -1.2083e-13
-6.19619e-11 -5.38689e-11 -4.186e-13
-3.07163e-11 -5.33115e-11 1.27974e-13
-1.57328e-13 -5.22947e-11 9.43996e-14
3.25784e-11 -5.32472e-11 -7.40374e-14
6.26424e-11 -5.26696e-11 -7.36239e-13
9.4619e-11 -5.45708e-11 -3.12688e-13
1.28328e-10 -5.23703e-11 -9.84654e-14
1.58311e-10 -5.08734e-11 -1.72227e-14
1.92865e-10 -5.51227e-11 -1.34914e-13
2.23237e-10 -5.5806e-11 2.95347e-13
2.52043e-10 -5.40001e-11 1.48352e-13
2.88184e-10 -5.33179e-11 3.23072e-13
3.17e-10 -5.55316e-11 2.60361e-13
-3.17e-10 0 2.33052e-14
-2.8549e-10 0 1.44801e-13
-2.54873e-10 0 -2.63822e-13
-2.2022e-10 0 -2.3709e-13
-1.91693e-10 0 3.38442e-13
-1.56924e-10 0 2.0024e-13
-1.29651e-10 0 -6.80891e-14
-9.55649e-11 0 2.23561e-13
-6.34999e-11 0 -5.00199e-15
-2.93702e-11 0 -2.26299e-13
-1.71159e-13 0 -1.3033e-13
3.19364e-11 0 -2.06542e-13
6.38304e-11 0 -1.64045e-13
9.43116e-11 0 1.26729e-13
1.27106e-10 0 3.44385e-13
1.59306e-10 0 1.962e-13
1.90514e-10 0 2.01466e-13
2.2429e-10 0 -2.22419e-13
2.53387e-10 0 -4.44795e-13
2.88654e-10 0 -6.21136e-14
3.17e-10 0 -9.40184e-14
-3.17e-10 -1.22033e-11 -2.01423e-13
-2.85606e-10 -1.04735e-11 -3.79332e-14
-2.5339e-10 -1.22724e-11 1.93986e-13
-2.23855e-10 -1.09293e-11 -1.5426e-13
-1.91234e-10 -1.12608e-11 -2.17942e-13
-1.59643e-10 -1.1468e-11 -1.4002e-13
-1.28587e-10 -1.07921e-11 1.59523e-13
-9.47984e-11 -1.16346e-11 1.0582e-13
-6.3826e-11 -8.95283e-12 1.22133e-13
-3.16866e-11 -1.03528e-11 9.60165e-14
-1.3336e-13 -8.9656e-12 -1.70736e-13
3.05383e-11 -1.02239e-11 2.34662e-14
6.38755e-11 -8.99151e-12 -2.43584e-14
9.41969e-11 -1.03532e-11 -1.03187e-14
1.28467e-10 -1.10406e-11 -1.55839e-13
1.58055e-10 -9.71483e-12 -1.41831e-13
1.914e-10 -1.11825e-11 -9.09627e-14
2.22666e-10 -1.16122e-11 -2.74746e-13
2.54406e-10 -1.14248e-11 -4.65574e-14
2.85005e-10 -1.09499e-11 -2.06025e-13
3.17e-10 -7.79333e-12 -4.78937e-13
-3.17e-10 -2.23514e-11 2.58958e-13
-2.85739e-10 -2.37388e-11 -6.6516e-14
-2.53799e-10 -2.21203e-11 -6.43378e-14
-2.2182e-10 -2.22886e-11 -8.50697e-14
-1.92416e-10 -2.20033e-11 -2.5159e-13
-1.61006e-10 -2.06883e-11 -1.68654e-13
-1.29289e-10 -2.1863e-11 1.58875e-13
-9.72374e-11 -2.13598e-11 -9.83531e-14
-6.44649e-11 -1.991e-11 -1.01089e-13
-3.26117e-11 -2.02023e-11 1.67817e-13
-2.74559e-13 -1.84778e-11 7.00761e-14
3.22075e-11 -2.13383e-11 -4.00119e-14
6.51264e-11 -2.15271e-11 -1.29593e-13
9.81899e-11 -2.07686e-11 -5.12281e-14
1.28003e-10 -2.06259e-11 5.95295e-15
1.61518e-10 -2.01309e-11 -4.83815e-14
1.93006e-10 -2.22856e-11 -1.70772e-13
2.22291e-10 -2.18308e-11 1.63676e-13
2.55e-10 -2.30788e-11 8.48587e-14
2.85506e-10 -2.1021e-11 -7.33103e-14
3.17e-10 -2.3198e-11 -1.00694e-13
-3.17e-10 -3.16593e-11 -4.31478e-13
-2.84486e-10 -3.46958e-11 -1.53363e-13
-2.56392e-10 -3.39516e-11 -3.02593e-14
-2.24115e-10 -3.12673e-11 -4.42032e-14
-1.90727e-10 -3.22111e-11 2.6581e-14
-1.5939e-10 -3.1486e-11 1.18694e-13
-1.29969e-10 -3.09183e-11 1.95525e-13
-9.60491e-11 -3.06271e-11 -5.22119e-14
-6.33552e-11 -3.03586e-11 -1.45351e-13
-3.2503e-11 -2.93894e-11 8.47146e-14
-1.57362e-13 -3.07467e-11 1.43499e-13
3.20809e-11 -3.23964e-11 2.3868e-13
6.40286e-11 -3.16292e-11 -1.89441e-13
9.67793e-11 -3.06625e-11 -1.82439e-13
1.28609e-10 -3.16711e-11 1.7814e-13
1.6026e-10 -2.95609e-11 2.64651e-14
1.91462e-10 -3.3363e-11 -4.42007e-14
2.23781e-10 -3.25974e-11 1.09698e-13
2.54872e-10 -3.34395e-11 2.15388e-14
2.85763e-10 -3.16172e-11 -3.55676e-14
3.17e-10 -3.78361e-11 -1.58896e-13
-3.17e-10 -4.47774e-11 -1.57098e-13
-2.8688e-10 -4.5512e-11 -6.46837e-14
-2.56256e-10 -4.27124e-11 -7.57763e-14
-2.23599e-10 -4.3171e-11 2.2912e-13
-1.92462e-10 -4.19244e-11 2.18852e-13
-1.59818e-10 -4.02013e-11 -9.43087e-15
-1.29599e-10 -4.09033e-11 1.33029e-13
-9.65298e-11 -4.20228e-11 1.82384e-13
-6.53765e-11 -4.18888e-11 -4.30562e-14
-3.19685e-11 -4.11327e-11 1.48146e-13
1.82381e-13 -4.34998e-11 2.72133e-13
3.04793e-11 -4.31731e-11 7.86505e-14
6.22655e-11 -4.1718e-11 1.5955e-13
9.57617e-11 -4.26706e-11 5.31896e-14
1.28404e-10 -4.10511e-11 -4.57948e-14
1.60052e-10 -4.11362e-11 1.6421e-14
1.91496e-10 -4.30655e-11 1.65391e-13
2.24049e-10 -4.41568e-11 8.13521e-14
2.54248e-10 -4.34277e-11 -1.74265e-13
2.85038e-10 -4.47021e-11 -6.46859e-14
3.17e-10 -4.57271e-11 -5.84774e-14
-3.17e-10 -5.90654e-11 2.49601e-13
-2.85305e-10 -5.36973e-11 2.80031e-13
-2.53823e-10 -5.47015e-11 -2.46182e-13
-2.25683e-10 -5.44021e-11 -1.38116e-13
-1.92184e-10 -5.1477e-11 -5.17086e-13
-1.59146e-10 -5.14695e-11 -3.77048e-13
-1.26996e-10 -5.30909e-11 1.72789e-13
-9.52063e-11 -5.09594e-11 -5.39402e-13
-6.29767e-11 -5.13689e-11 7.561e-14
-3.01336e-11 -5.26214e-11 3.23777e-14
-5.42546e-13 -5.30311e-11 1.48124e-13
2.93888e-11 -5.34084e-11 5.30254e-14
6.13971e-11 -5.34906e-11 -2.84231e-14
9.5851e-11 -5.32582e-11 -2.58182e-13
1.27896e-10 -5.20532e-11 -4.82648e-15
1.61452e-10 -5.20268e-11 2.14967e-13
1.92012e-10 -5.33902e-11 1.03007e-13
2.21778e-10 -5.36374e-11 2.57595e-13
2.52766e-10 -5.2232e-11 7.25056e-14
2.8564e-10 -5.59399e-11 7.93204e-14
3.17e-10 -5.32559e-11 -2.16155e-13
-3.17e-10 0 -9.9069e-14
-2.87289e-10 0 1.89823e-13
-2.53174e-10 0 3.79837e-13
-2.23373e-10 0 -1.10955e-13
-1.89144e-10 0 -1.96058e-13
-1.5979e-10 0 8.31294e-14
-1.26985e-10 0 -2.70438e-13
-9.6954e-11 0 -4.29447e-13
-6.20645e-11 0 5.83054e-15
-3.2953e-11 0 1.77285e-13
-5.86161e-13 0 -5.57094e-15
3.19146e-11 0 1.81464e-13
6.29361e-11 0 3.06915e-13
9.59122e-11 0 6.94322e-14
1.26004e-10 0 -1.23068e-13
1.58932e-10 0 -9.24728e-14
1.90263e-10 0 -9.98007e-14
2.20942e-10 0 -1.88768e-13
2.53787e-10 0 2.70731e-14
2.85102e-10 0 -1.64745e-13
3.17e-10 0 -1.96676e-13
-3.17e-10 -1.24502e-11 -2.08096e-13
-2.862e-10 -1.13199e-11 -1.57977e-13
-2.54394e-10 -1.17989e-11 -2.19183e-13
-2.23526e-10 -1.0879e-11 -1.36625e-13
-1.91051e-10 -9.90257e-12 -1.03556e-13
-1.58727e-10 -1.06685e-11 -2.6476e-13
-1.28861e-10 -1.11313e-11 -2.12813e-13
-9.61313e-11 -9.04575e-12 -1.80093e-13
-6.4809e-11 -1.04063e-11 1.03352e-13
-3.1686e-11 -9.41647e-12 -2.98803e-14
-1.44675e-13 -1.00711e-11 -6.11583e-14
3.06859e-11 -1.01216e-11 -4.45064e-14
6.29629e-11 -9.49822e-12 -1.75901e-14
9.47762e-11 -9.25517e-12 -3.47579e-14
1.27221e-10 -1.18519e-11 -1.14715e-13
1.60341e-10 -1.18998e-11 -1.71946e-13
1.90058e-10 -1.04666e-11 4.03889e-14
2.2236e-10 -1.13575e-11 -8.03736e-14
2.53267e-10 -1.11785e-11 8.34593e-14
2.86349e-10 -1.19494e-11 -1.59575e-13
3.17e-10 -1.39119e-11 -6.47287e-13
-3.17e-10 -2.34458e-11 -2.38835e-13
-2.8495e-10 -2.33883e-11 -2.61806e-13
-2.57444e-10 -2.31783e-11 -8.70167e-14
-2.23646e-10 -2.17201e-11 1.02002e-13
-1.9289e-10 -2.01125e-11 1.86351e-13
-1.62078e-10 -2.14933e-11 2.06486e-13
-1.28714e-10 -2.0708e-11 -2.54978e-13
-9.66444e-11 -2.03156e-11 -1.41107e-13
-6.48606e-11 -1.95612e-11 2.0218e-14
-3.19891e-11 -2.08342e-11 1.51027e-14
-2.83203e-13 -2.00379e-11 1.88294e-13
3.19871e-11 -1.93344e-11 4.69638e-14
6.32745e-11 -2.05053e-11 -3.19282e-13
9.66276e-11 -2.0169e-11 -1.14819e-13
1.27863e-10 -2.06278e-11 -1.00537e-14
1.59023e-10 -2.0635e-11 -1.27131e-13
1.91285e-10 -2.23725e-11 9.05657e-14
2.22624e-10 -2.14483e-11 -5.01031e-15
2.56423e-10 -2.40151e-11 -6.14248e-14
2.85254e-10 -2.21054e-11 1.0696e-13
3.17e-10 -2.56539e-11 6.35526e-14
-3.17e-10 -3.37609e-11 -1.37387e-13
-2.87239e-10 -3.35542e-11 -1.49978e-13
-2.54653e-10 -3.39685e-11 -5.08328e-14
-2.22524e-10 -3.3337e-11 2.01662e-13
-1.92023e-10 -3.21524e-11 1.7424e-13
-1.6009e-10 -3.09283e-11 1.20544e-13
-1.28835e-10 -3.29464e-11 -9.29728e-14
-9.64774e-11 -3.10766e-11 -1.01364e-13
-6.57633e-11 -3.08114e-11 -3.52061e-13
-3.22228e-11 -3.23156e-11 -1.01795e-13
-4.49549e-14 -3.06161e-11 1.91599e-13
3.07529e-11 -3.04486e-11 2.16209e-13
6.45934e-11 -3.16252e-11 -1.2561e-13
9.56161e-11 -3.0542e-11 -8.45975e-14
1.29058e-10 -3.20527e-11 -8.94936e-14
1.60325e-10 -3.11466e-11 -7.0292e-14
1.91993e-10 -3.24187e-11 -2.26939e-14
2.22428e-10 -3.28275e-11 -5.58075e-14
2.53251e-10 -3.18772e-11 -5.45736e-14
2.85962e-10 -3.44634e-11 6.4695e-14
3.17e-10 -3.61701e-11 1.37667e-14
-3.17e-10 -4.42436e-11 6.79659e-14
-2.84368e-10 -4.63236e-11 -1.16139e-13
-2.53953e-10 -4.33725e-11 -9.42998e-14
-2.21477e-10 -4.44786e-11 -6.94786e-14
-1.91845e-10 -4.12297e-11 -9.30986e-14
-1.60361e-10 -4.24199e-11 2.23283e-13
-1.28333e-10 -4.33515e-11 2.27498e-13
-9.58396e-11 -4.21424e-11 -3.72943e-14
-6.36065e-11 -4.06643e-11 -2.42741e-13
-3.08665e-11 -4.21001e-11 -7.25574e-14
2.12896e-13 -4.07338e-11 2.33837e-13
3.35629e-11 -4.14872e-11 1.30755e-13
6.27765e-11 -4.18919e-11 1.96729e-13
9.57755e-11 -4.26232e-11 -7.12666e-14
1.27966e-10 -4.18881e-11 -1.63796e-13
1.60166e-10 -4.32822e-11 1.39502e-13
1.92083e-10 -4.13858e-11 -1.42201e-13
2.2131e-10 -4.33469e-11 -4.26931e-14
2.5492e-10 -4.5614e-11 2.64344e-13
2.83936e-10 -4.5531e-11 1.97349e-13
3.17e-10 -4.36171e-11 4.06615e-14
-3.17e-10 -5.6004e-11 -2.01958e-13
-2.85876e-10 -5.68083e-11 3.9092e-13
-2.54814e-10 -5.51977e-11 1.79583e-13
-2.22999e-10 -5.52404e-11 -9.83301e-14
-1.91983e-10 -5.02304e-11 -2.38949e-13
-1.58143e-10 -5.10462e-11 7.96635e-13
-1.27262e-10 -5.4384e-11 5.30778e-13
-9.61183e-11 -5.08848e-11 2.03483e-13
-6.3386e-11 -5.28512e-11 1.42392e-13
-3.19316e-11 -5.16999e-11 -2.01966e-13
-2.98989e-13 -5.22281e-11 1.52835e-13
3.07677e-11 -5.49343e-11 8.79703e-14
6.21496e-11 -5.10501e-11 -1.35912e-13
9.36089e-11 -5.21012e-11 -4.87919e-13
1.27702e-10 -5.26681e-11 1.86345e-13
1.58553e-10 -5.21675e-11 4.91968e-13
1.90968e-10 -4.99692e-11 2.89213e-13
2.24397e-10 -5.5909e-11 -3.00912e-13
2.54392e-10 -5.48339e-11 1.77111e-13
2.88935e-10 -5.43166e-11 2.12011e-13
3.17e-10 -5.66222e-11 2.66846e-13
-3.17e-10 0 7.9021e-14
-2.86379e-10 0 -4.14634e-14
-2.5161e-10 0 3.32982e-14
-2.21751e-10 0 -4.74817e-14
-1.91456e-10 0 -2.42527e-13
-1.60359e-10 0 -2.29001e-13
-1.26924e-10 0 -3.93183e-13
-9.68366e-11 0 -9.83005e-14
-6.43301e-11 0 2.25974e-13
-3.13228e-11 0 4.08719e-13
-5.25543e-13 0 -1.55142e-13
3.33494e-11 0 2.95136e-14
6.58866e-11 0 -1.45298e-13
9.85965e-11 0 5.76243e-14
1.3098e-10 0 -2.33075e-13
1.58168e-10 0 -2.45137e-14
1.92156e-10 0 4.45474e-13
2.22746e-10 0 -9.05072e-14
2.55433e-10 0 -1.56539e-13
2.87383e-10 0 -4.07689e-13
3.17e-10 0 1.07616e-13
-3.17e-10 -1.1696e-11 1.75117e-13
-2.85044e-10 -1.27627e-11 2.07289e-13
-2.54211e-10 -1.19919e-11 -1.96956e-14
-2.21906e-10 -1.10172e-11 -5.6024e-14
-1.89869e-10 -1.01443e-11 -1.29992e-13
-1.59781e-10 -1.16672e-11 4.2338e-15
-1.27394e-10 -1.18013e-11 -2.77839e-13
-9.69549e-11 -1.17938e-11 -2.95645e-14
-6.37466e-11 -9.14527e-12 2.66858e-14
-3.07165e-11 -9.6781e-12 -5.90371e-14
-3.42672e-13 -9.39541e-12 -1.18292e-13
3.20283e-11 -9.21955e-12 -7.05835e-14
6.29587e-11 -9.66879e-12 6.24127e-15
9.48199e-11 -1.1049e-11 -7.89687e-14
1.28164e-10 -1.01503e-11 -4.12368e-14
1.59325e-10 -1.10959e-11 -3.50446e-13
1.9334e-10 -1.17437e-11 2.54927e-13
2.24982e-10 -1.25173e-11 -4.35373e-14
2.5578e-10 -1.06311e-11 -2.15821e-13
2.85404e-10 -1.20529e-11 -2.09767e-13
3.17e-10 -9.71202e-12 -2.97631e-13
-3.17e-10 -2.47468e-11 -1.61102e-13
-2.85206e-10 -2.41522e-11 5.84589e-14
-2.53882e-10 -2.40425e-11 1.82729e-13
-2.23239e-10 -2.22604e-11 -1.01498e-13
-1.9271e-10 -2.15259e-11 5.52851e-14
-1.59662e-10 -2.30293e-11 7.44552e-14
-1.27974e-10 -2.13612e-11 1.6115e-14
-9.71258e-11 -2.28013e-11 1.7486e-14
-6.36029e-11 -1.93515e-11 9.61407e-14
-3.36045e-11 -2.02705e-11 -2.1749e-13
-1.33852e-13 -1.92223e-11 -2.444e-13
3.31127e-11 -2.08857e-11 1.79566e-14
6.4249e-11 -2.03337e-11 -9.4168e-15
9.61404e-11 -2.16372e-11 -2.31951e-13
1.29583e-10 -1.99426e-11 -4.92262e-14
1.60515e-10 -2.25411e-11 2.60012e-14
1.91276e-10 -2.23833e-11 -2.35831e-13
2.22906e-10 -2.22328e-11 -3.54397e-13
2.53937e-10 -2.20699e-11 -3.09005e-13
2.85126e-10 -2.12409e-11 -8.44071e-14
3.17e-10 -2.2249e-11 -9.75953e-14
-3.17e-10 -3.2833e-11 6.40766e-14
-2.85338e-10 -3.54432e-11 -8.63232e-14
-2.55017e-10 -3.37313e-11 -1.00896e-13
-2.22919e-10 -3.10571e-11 1.774e-13
-1.90802e-10 -3.03489e-11 1.36945e-13
-1.60398e-10 -3.37816e-11 8.70604e-14
-1.28556e-10 -3.12227e-11 -6.44909e-14
-9.44982e-11 -3.17793e-11 -5.00936e-15
-6.47639e-11 -3.05539e-11 -2.98782e-14
-3.19414e-11 -3.00506e-11 -4.15332e-14
-3.79951e-13 -3.07193e-11 1.85349e-13
3.15856e-11 -3.02594e-11 1.62163e-14
6.56076e-11 -3.17253e-11 1.44424e-13
9.59288e-11 -3.26421e-11 -1.0729e-13
1.27419e-10 -3.18196e-11 -1.61128e-13
1.60726e-10 -3.06895e-11 8.35913e-14
1.93476e-10 -3.17482e-11 -8.27923e-14
2.23255e-10 -3.29993e-11 -9.0362e-14
2.53067e-10 -3.22411e-11 -2.88328e-13
2.85804e-10 -3.352e-11 -2.71989e-13
3.17e-10 -3.45396e-11 -6.14312e-14
-3.17e-10 -4.50818e-11 -1.56318e-13
-2.84672e-10 -4.62937e-11 -1.45522e-13
-2.55852e-10 -4.47464e-11 1.27996e-14
-2.25568e-10 -4.23206e-11 9.45204e-14
-1.91846e-10 -4.04489e-11 9.80937e-14
-1.59438e-10 -4.18691e-11 4.56649e-13
-1.27078e-10 -4.37097e-11 2.32783e-14
-9.69137e-11 -4.26463e-11 -7.89297e-14
-6.38642e-11 -4.22684e-11 -1.19371e-13
-3.22167e-11 -4.17953e-11 2.4204e-13
-5.209e-13 -4.13714e-11 1.44625e-13
3.12052e-11 -4.10185e-11 6.28051e-14
6.43199e-11 -4.21024e-11 -1.40152e-14
9.64309e-11 -4.18419e-11 -1.81207e-13
1.2807e-10 -4.21659e-11 -1.5984e-13
1.59924e-10 -4.32942e-11 -8.15679e-14
1.90978e-10 -4.15314e-11 -3.45133e-13
2.22862e-10 -4.32086e-11 2.3071e-13
2.53424e-10 -4.47029e-11 4.37311e-14
2.85016e-10 -4.31487e-11 -2.28869e-13
3.17e-10 -4.64236e-11 -1.48623e-13
-3.17e-10 -5.57021e-11 -5.1947e-13
-2.87656e-10 -5.93908e-11 -2.28751e-13
-2.56769e-10 -5.43302e-11 2.85511e-13
-2.24095e-10 -5.30257e-11 4.08638e-15
-1.92723e-10 -5.33213e-11 -6.1206e-14
-1.60961e-10 -5.15708e-11 7.49453e-13
-1.3019e-10 -5.49903e-11 7.88788e-13
-9.60954e-11 -5.15131e-11 4.57291e-13
-6.35266e-11 -5.30877e-11 -8.58862e-14
-3.05347e-11 -5.10662e-11 -1.44053e-13
-5.99499e-13 -5.35233e-11 -2.57319e-15
3.14636e-11 -5.19777e-11 -1.1801e-13
6.3879e-11 -5.24594e-11 2.71109e-13
9.6621e-11 -5.12439e-11 2.33313e-13
1.26265e-10 -5.2782e-11 7.13549e-13
1.60412e-10 -5.33195e-11 2.26277e-13
1.92447e-10 -5.37506e-11 -3.51424e-14
2.22556e-10 -5.33454e-11 2.25327e-13
2.52468e-10 -5.3384e-11 2.03324e-13
2.86572e-10 -5.29745e-11 -4.47033e-14
3.17e-10 -5.69676e-11 2.09853e-13
-3.17e-10 0 -4.8384e-13
-2.87013e-10 0 -1.26313e-13
-2.52692e-10 0 -1.32686e-13
-2.25411e-10 0 3.7423e-13
-1.90954e-10 0 1.96867e-13
-1.59793e-10 0 -1.51327e-13
-1.2973e-10 0 -8.07847e-14
-9.55886e-11 0 3.12269e-13
-6.47016e-11 0 -7.62901e-14
-3.0739e-11 0 -4.06261e-14
1.57563e-13 0 -4.92829e-13
3.1391e-11 0 -4.35053e-13
6.46924e-11 0 2.52688e-14
9.36877e-11 0 -7.98487e-14
1.30182e-10 0 -4.07002e-13
1.61155e-10 0 -2.86966e-13
1.92532e-10 0 -1.59553e-13
2.20808e-10 0 -1.4775e-13
2.55532e-10 0 -2.76593e-13
2.84862e-10 0 -6.51727e-14
3.17e-10 0 -1.33725e-13
-3.17e-10 -1.0154e-11 2.39909e-14
-2.83867e-10 -1.22361e-11 -1.83238e-13
-2.54544e-10 -1.18472e-11 -1.05233e-13
-2.21391e-10 -1.08615e-11 1.42386e-13
-1.91982e-10 -1.0114e-11 1.17101e-13
-1.61174e-10 -1.07538e-11 -1.81089e-13
-1.27049e-10 -1.2301e-11 -2.52916e-14
-9.52144e-11 -1.09565e-11 -4.53638e-14
-6.26647e-11 -9.88217e-12 -9.34191e-14
-3.11288e-11 -1.02647e-11 -5.98013e-14
-3.95481e-13 -8.71415e-12 -1.81241e-13
3.07714e-11 -1.0258e-11 -2.76801e-13
6.25383e-11 -9.29716e-12 9.01858e-14
9.58427e-11 -1.0098e-11 -1.50895e-13
1.25934e-10 -1.07282e-11 -1.93974e-14
1.59957e-10 -1.10503e-11 1.14219e-13
1.90166e-10 -9.07439e-12 -5.72358e-14
2.23496e-10 -1.18457e-11 2.32674e-14
2.53643e-10 -1.13377e-11 -1.92029e-13
2.85652e-10 -1.13724e-11 8.26526e-14
3.17e-10 -1.26703e-11 -4.12541e-14
-3.17e-10 -2.16445e-11 -1.73758e-13
-2.86175e-10 -2.28734e-11 -3.05618e-14
-2.53583e-10 -2.16679e-11 -4.68531e-14
-2.22657e-10 -2.0241e-11 -1.25384e-13
-1.91788e-10 -2.02926e-11 -2.15547e-14
-1.61421e-10 -2.1926e-11 2.11854e-13
-1.28165e-10 -2.05109e-11 1.43158e-13
-9.58239e-11 -2.06018e-11 -1.09721e-13
-6.43486e-11 -2.03918e-11 -6.81516e-14
-3.12595e-11 -1.96314e-11 -1.09071e-13
1.20747e-13 -1.96113e-11 -7.73794e-14
3.19737e-11 -1.87236e-11 -1.89449e-13
6.34913e-11 -2.08237e-11 -1.23295e-14
9.77547e-11 -2.16576e-11 1.16257e-15
1.2704e-10 -2.04472e-11 1.24797e-13
1.59921e-10 -2.24402e-11 1.42102e-13
1.93233e-10 -2.15657e-11 -2.32114e-14
2.24157e-10 -2.184e-11 -1.2151e-13
2.55458e-10 -2.22501e-11 2.92612e-14
2.85231e-10 -2.45729e-11 -3.00071e-14
3.17e-10 -2.38551e-11 3.23589e-14
-3.17e-10 -3.37738e-11 -3.81226e-13
-2.85967e-10 -3.49117e-11 -1.52908e-13
-2.5462e-10 -3.49871e-11 -1.32709e-14
-2.22155e-10 -3.37251e-11 1.36058e-13
-1.92601e-10 -3.20082e-11 -4.12123e-14
-1.60003e-10 -3.13259e-11 2.64372e-14
-1.28836e-10 -3.36102e-11 1.06189e-13
-9.66319e-11 -3.15547e-11 9.25879e-14
-6.42143e-11 -3.06475e-11 7.89422e-14
-3.24496e-11 -3.07862e-11 2.87435e-14
-1.07e-13 -3.00381e-11 2.35756e-13
3.14383e-11 -2.92434e-11 -1.40628e-13
6.36741e-11 -3.16873e-11 1.03707e-13
9.57352e-11 -3.17241e-11 1.39047e-13
1.28406e-10 -3.11474e-11 -1.3471e-13
1.61888e-10 -3.36995e-11 -6.34486e-14
1.92133e-10 -3.30582e-11 -4.30834e-14
2.24095e-10 -3.14081e-11 -1.58002e-13
2.54118e-10 -3.29883e-11 1.2336e-13
2.86466e-10 -3.73484e-11 -9.94159e-14
3.17e-10 -3.56207e-11 -1.3222e-13
-3.17e-10 -4.46001e-11 1.39155e-13
-2.86859e-10 -4.67826e-11 4.61884e-14
-2.54857e-10 -4.38429e-11 -1.75848e-14
-2.248e-10 -4.38673e-11 1.32017e-13
-1.9142e-10 -4.13032e-11 1.38468e-13
-1.5991e-10 -4.11986e-11 -2.98011e-13
-1.29323e-10 -4.30759e-11 1.23489e-13
-9.71978e-11 -4.17128e-11 2.06912e-13
-6.14399e-11 -4.17524e-11 1.19034e-13
-3.27456e-11 -4.1082e-11 1.68865e-13
-3.21551e-13 -4.08761e-11 1.02385e-13
3.27968e-11 -4.03061e-11 -1.80622e-13
6.3182e-11 -4.16519e-11 -2.18677e-13
9.52783e-11 -4.26426e-11 1.59585e-13
1.28185e-10 -4.16365e-11 7.996e-14
1.5989e-10 -4.40671e-11 4.36418e-14
1.91176e-10 -4.36195e-11 1.63807e-13
2.22986e-10 -4.36185e-11 3.2099e-14
2.55623e-10 -4.67585e-11 -7.13299e-14
2.86456e-10 -4.35373e-11 -7.73155e-14
3.17e-10 -4.72598e-11 -1.14947e-13
-3.17e-10 -5.74112e-11 1.02679e-13
-2.87178e-10 -5.70184e-11 -1.56156e-13
-2.53339e-10 -5.59147e-11 2.25556e-13
-2.23496e-10 -5.50191e-11 3.14266e-14
-1.92727e-10 -4.85565e-11 2.25534e-13
-1.58744e-10 -5.39142e-11 9.39027e-14
-1.28833e-10 -5.47828e-11 2.33868e-13
-9.52454e-11 -5.49115e-11 2.21489e-13