<?xml version="1.0"?>
<VTKFile type="StructuredGrid"  version="0.1" byte_order="LittleEndian" compressor="vtkZLibDataCompressor">
  <StructuredGrid WholeExtent="0 20 0 5 0 40">
    <Piece Extent="0 20 0 5 0 40">
      <PointData Vectors="velocity">
        <DataArray type="Float64" Name="velocity" NumberOfComponents="3" format="ascii">
-3.17e-10 0 0
-2.08427e-10 0 0
-1.59688e-10 0 0
2.78746e-09 0 0
-5.09959e-10 0 0
-3.41279e-10 0 0
-1.94818e-10 0 0
-2.02139e-10 0 0
-3.62252e-10 0 0
-1.89794e-10 0 0
2.46444e-11 0 0
-1.47424e-10 0 0
-9.48095e-11 0 0
9.49559e-10 0 0
-8.1602e-10 0 0
-4.01288e-10 0 0
3.85207e-10 0 0
4.10005e-10 0 0
1.23408e-10 0 0
-1.82798e-10 0 0
3.17e-10 0 0
-3.17e-10 -1.52252e-10 0
-2.74491e-10 -9.45901e-11 0
-2.47126e-10 -6.70315e-11 0
3.43799e-10 -1.34979e-09 0
-1.59503e-10 -2.41582e-09 0
-2.86824e-10 -8.12378e-11 0
-2.78467e-10 -1.05876e-10 0
-1.77851e-10 -2.62417e-10 0
-2.16437e-10 -1.95909e-10 0
-2.11809e-10 6.22939e-11 0
4.04655e-10 1.27681e-09 0
-3.79355e-10 3.29087e-09 0
-1.31754e-10 -2.70332e-10 0
1.679e-10 -6.57193e-10 0
9.49989e-11 -8.12087e-10 0
3.59955e-10 -6.15124e-10 0
-5.25992e-10 -2.87612e-10 0
2.84076e-10 -7.99741e-10 0
2.26407e-10 -6.51488e-10 0
6.19731e-10 -8.83649e-10 0
3.17e-10 -8.53587e-10 0
-3.17e-10 -3.27867e-10 0
-2.05257e-10 -2.16414e-10 0
-8.03545e-11 1.72702e-10 0
-1.43487e-10 -3.62856e-11 0
-1.60362e-10 -1.86178e-10 0
-2.49741e-10 -2.5511e-10 0
-2.65728e-10 2.76285e-10 0
-2.20536e-10 -2.63569e-10 0
3.88502e-11 -5.34795e-10 0
-8.28417e-11 -2.87026e-10 0
2.60527e-10 -4.44146e-10 0
-2.63404e-09 -7.44821e-10 0
1.05847e-10 -1.38672e-11 0
5.08033e-11 -3.95731e-10 0
6.92976e-11 3.07311e-11 0
8.0775e-10 -7.67482e-10 0
-3.20434e-10 -1.10759e-09 0
-5.57899e-12 -9.66787e-10 0
4.896e-10 -3.19596e-10 0
3.7302e-10 -1.12944e-09 0
3.17e-10 -7.25428e-10 0
-3.17e-10 4.69234e-10 0
-1.83964e-10 2.75332e-10 0
-3.68383e-10 4.20624e-10 0
-3.66122e-10 1.08009e-10 0
-2.92432e-10 3.07828e-10 0
-1.70879e-10 6.17954e-10 0
-1.17931e-10 1.17932e-11 0
2.14553e-10 9.55139e-10 0
4.375e-10 2.88215e-09 0
-4.46742e-10 9.87208e-10 0
-2.64699e-10 5.75175e-10 0
4.05081e-10 2.57014e-09 0
-8.42229e-11 2.42277e-10 0
1.48956e-10 6.7159e-11 0
-5.37997e-11 -1.08668e-10 0
1.35399e-10 -5.45929e-10 0
-2.81464e-10 -7.7849e-10 0
7.21535e-10 -8.27727e-10 0
4.41426e-10 -4.78779e-10 0
3.42904e-10 -4.96171e-10 0
3.17e-10 -5.10689e-10 0
-3.17e-10 -1.23387e-11 0
-7.26362e-10 -1.19589e-09 0
1.72287e-10 -6.21416e-10 0
-5.35451e-10 4.03359e-10 0
-3.28225e-10 -3.62783e-10 0
-1.20545e-09 -3.79137e-09 0
2.55345e-10 -2.30866e-09 0
1.19113e-10 -6.92259e-10 0
2.21515e-10 2.70735e-09 0
4.03336e-10 3.82666e-09 0
-6.64719e-10 1.33639e-09 0
-6.36237e-10 -8.90832e-10 0
-5.33382e-10 -7.81995e-10 0
4.15485e-10 -1.4927e-10 0
1.19623e-10 -4.72e-10 0
1.45851e-10 -1.03175e-09 0
-1.16308e-10 -5.00671e-10 0
4.39974e-10 -1.24764e-09 0
2.11939e-10 -8.85324e-10 0
4.35305e-10 -1.45798e-09 0
3.17e-10 -4.21086e-10 0
-3.17e-10 1.70898e-09 0
-8.42648e-10 8.95038e-10 0
4.42225e-10 7.74453e-10 0
1.86755e-10 7.15434e-10 0
-4.46266e-10 3.25053e-10 0
-4.65687e-10 6.19266e-09 0
2.72241e-10 3.4886e-09 0
-1.43378e-09 2.77753e-09 0
-6.97766e-10 -2.66619e-09 0
8.41771e-10 -1.55755e-09 0
1.30893e-09 -5.61595e-09 0
8.04443e-10 2.75089e-10 0
6.02722e-10 2.26462e-10 0
7.3957e-10 3.0843e-10 0
8.36796e-10 -3.47727e-12 0
8.98663e-10 -6.04385e-10 0
5.86626e-10 -8.25573e-10 0
1.30075e-10 -1.31656e-09 0
1.10716e-10 -1.35252e-10 0
1.1219e-10 -7.71398e-10 0
3.17e-10 -9.8507e-10 0
-3.17e-10 0 8.37e-11
-2.47449e-10 0 2.74586e-11
-2.45232e-10 0 4.34284e-11
1.0308e-09 0 -1.24798e-10
-4.51683e-10 0 -2.26726e-10
-3.33687e-10 0 4.72487e-11
-1.69948e-10 0 3.08657e-11
-1.1746e-10 0 3.24691e-11
-1.13168e-10 0 3.05322e-11
-1.10577e-10 0 1.65227e-10
-1.03525e-10 0 1.55093e-10
-1.20833e-10 0 -4.52462e-11
-5.77645e-11 0 -1.81654e-11
7.90235e-10 0 -2.0389e-10
-2.1596e-10 0 -5.30771e-10
1.8317e-10 0 -2.91609e-09
3.22118e-10 0 -2.37243e-10
-1.78616e-09 0 -3.2091e-10
-3.77971e-10 0 -1.08873e-09
7.21602e-11 0 -7.38473e-10
3.17e-10 0 -7.80563e-10
-3.17e-10 -1.47511e-10 7.2074e-11
-3.16135e-10 -8.25953e-11 3.79507e-11
-3.36492e-10 -3.80291e-11 5.84293e-11
4.88673e-12 -4.76787e-10 -4.20179e-10
-2.03219e-10 -4.26324e-10 -5.85711e-10
-2.94788e-10 2.61982e-11 1.24406e-12
-1.5523e-10 -4.51132e-11 2.29658e-11
-1.12248e-10 -1.38104e-10 2.52457e-11
-6.79065e-11 5.84112e-12 -3.41902e-11
-5.47118e-11 -6.72069e-10 -4.65382e-11
1.35856e-09 3.58304e-10 -2.97574e-10
-3.04881e-10 7.47671e-10 -3.59196e-09
-7.72728e-11 -2.44272e-10 -4.0032e-11
1.80714e-10 -3.06725e-10 -9.86352e-10
4.85357e-11 -5.42734e-10 -3.48483e-10
2.00211e-10 -7.17933e-10 -6.76363e-10
3.53048e-10 -9.57177e-10 -6.64131e-10
-4.87088e-10 -1.07616e-09 -8.01168e-10
-1.89064e-11 -5.84609e-10 -2.24189e-09
3.29472e-10 -2.12525e-09 -7.83441e-10
3.17e-10 -4.26637e-10 -1.12676e-09
-3.17e-10 -3.25591e-10 5.41946e-11
-1.5197e-11 -2.72139e-10 5.5202e-11
-1.21481e-10 -6.90979e-11 -8.85196e-11
-1.341e-10 -5.91685e-10 -1.62193e-10
-2.58357e-10 -1.30071e-10 -1.65339e-10
-2.58351e-10 -1.49573e-10 -3.66789e-11
-2.62498e-10 -9.88536e-11 2.11344e-11
-2.25263e-10 -2.41185e-10 1.2329e-11
-6.0558e-11 -5.46842e-11 -5.07354e-11
-1.33499e-10 3.29733e-10 1.96192e-10
1.36668e-10 -1.56463e-09 -5.49352e-10
-8.24656e-10 -7.25698e-10 -6.36928e-10
2.19399e-11 -1.57407e-10 1.37297e-10
2.24074e-11 -9.30104e-11 -1.23706e-10
3.5544e-11 -5.41941e-10 9.64286e-10
3.27618e-10 -8.12615e-10 -4.52079e-10
-3.31079e-10 -5.17752e-10 -3.3437e-10
4.51636e-10 -3.83241e-10 5.54554e-10
5.16856e-10 -8.02918e-10 -6.55027e-10
4.83666e-10 -6.45268e-10 1.21623e-09
3.17e-10 -4.49673e-10 -4.38639e-10
-3.17e-10 1.28552e-09 3.17007e-10
-5.71419e-10 8.41365e-10 6.12376e-11
-5.15905e-10 4.12412e-10 2.67884e-10
-1.74285e-10 3.52555e-10 -2.32752e-10
-2.36319e-10 2.76907e-10 -2.06737e-10
1.61676e-12 4.93615e-10 -4.3109e-10
7.67935e-11 4.61698e-10 -1.20611e-10
7.18351e-10 1.11336e-09 9.7234e-11
4.62907e-11 7.83727e-10 5.21002e-10
-4.70101e-10 3.58578e-09 -2.99119e-10
-1.12885e-10 1.00719e-09 3.99493e-10
4.7661e-10 1.14647e-09 -2.08662e-10
-3.92487e-10 4.21913e-10 1.08048e-10
4.81777e-11 1.91511e-10 1.29062e-10
4.26798e-11 -4.57235e-10 1.65534e-10
-2.64827e-10 -3.81866e-10 -1.80417e-11
-6.40069e-11 -2.48591e-10 1.01418e-10
4.32294e-10 -2.68919e-10 4.21329e-11
3.96425e-10 -8.82054e-10 -4.52249e-11
1.38761e-10 1.41133e-10 -3.89592e-10
3.17e-10 -4.79336e-10 -5.27265e-12
-3.17e-10 -1.1329e-09 -6.55516e-10
-5.75701e-10 -3.12358e-09 -1.29764e-10
-2.74123e-11 -1.41421e-09 3.48248e-11
-3.75249e-10 1.68618e-10 -2.03522e-10
-2.97948e-10 -1.21543e-10 1.55504e-10
-2.58202e-10 -8.4506e-10 -3.84425e-10
3.83996e-10 -5.51574e-10 -1.6512e-10
-1.24235e-09 -2.89219e-09 2.69774e-10
8.46613e-11 -3.25862e-09 -8.18817e-10
3.35648e-10 -1.2005e-09 -1.12148e-09
-3.82721e-10 -1.90795e-09 -1.51229e-09
6.99003e-10 -1.9821e-09 -4.84975e-10
-5.35051e-10 -1.36281e-09 -1.72155e-10
1.56722e-10 -7.73894e-10 -5.21987e-10
1.51814e-10 -7.05796e-11 2.97975e-11
-7.86567e-10 -2.6254e-09 -8.10637e-10
3.51977e-10 -9.71118e-10 -3.17866e-10
1.95597e-10 -1.75431e-09 1.77226e-10
3.16617e-10 -1.03868e-09 1.91948e-10
4.32333e-10 6.4464e-11 -1.94707e-10
3.17e-10 -1.23037e-09 -1.87773e-10
-3.17e-10 2.55224e-09 3.05802e-10
-2.42283e-10 4.36444e-09 -3.657e-10
-2.99281e-10 2.52385e-09 2.72974e-10
3.6845e-10 -1.72656e-09 3.76875e-10
-2.01912e-10 -7.91359e-10 -3.93784e-10
-5.3492e-10 7.1928e-10 -2.11974e-10
6.59642e-10 8.03004e-10 -5.89594e-10
-4.46465e-10 1.12667e-09 -6.29736e-10
9.58166e-11 1.15074e-08 -8.41965e-10
1.15001e-09 1.6833e-09 -1.03422e-09
-2.75744e-10 2.53911e-09 -1.30862e-09
3.73838e-10 4.10989e-10 -1.04475e-09
1.3359e-09 -2.34033e-09 9.05248e-10
-3.59591e-11 -1.72569e-09 8.1882e-10
1.02433e-09 3.71268e-10 -2.76784e-10
2.8313e-10 5.76116e-09 -6.12082e-10
5.13392e-10 4.51271e-09 -4.97255e-10
-3.75366e-10 2.76084e-09 6.72723e-11
9.10921e-10 2.85861e-09 -4.38568e-10
4.21169e-10 -2.92734e-10 -1.89471e-10
3.17e-10 -7.84233e-10 -1.24277e-10
-3.17e-10 0 1.39216e-10
-2.03171e-10 0 1.40279e-10
-2.39704e-10 0 2.0554e-10
-2.94988e-10 0 9.23187e-11
-2.35758e-10 0 4.15921e-11
-2.3581e-10 0 -1.07295e-10
-1.04481e-10 0 2.2494e-11
-9.17154e-11 0 3.88288e-11
1.00689e-11 0 -4.43828e-11
-5.2735e-11 0 -8.02184e-11
-1.00895e-10 0 -1.45922e-10
-1.26035e-12 0 3.76585e-11
-4.24976e-11 0 -6.62327e-13
-2.08846e-10 0 -9.6971e-12
8.34931e-11 0 -4.55831e-10
3.76135e-10 0 -2.22776e-10
6.33318e-10 0 -3.55092e-10
-6.97692e-10 0 -4.62486e-10
3.71759e-10 0 -1.16065e-09
6.1674e-10 0 -6.3874e-10
3.17e-10 0 -2.65964e-10
-3.17e-10 -1.20558e-10 1.5174e-10
-1.1087e-10 -9.97589e-11 1.3818e-10
-1.64635e-10 -9.28978e-11 1.44531e-10
-2.93774e-10 -2.43551e-10 4.76142e-11
-2.14607e-10 -1.78317e-10 -1.56701e-11
-2.18696e-10 1.25993e-11 -3.38053e-11
-1.30658e-10 -1.19981e-10 3.48564e-12
-7.40408e-11 -1.02939e-11 -2.21214e-11
-2.90274e-11 -1.89002e-10 -6.65599e-11
-1.79598e-10 -1.96866e-10 2.04519e-11
-7.75207e-11 -2.24776e-10 -1.20939e-10
3.27823e-11 -1.34895e-10 -1.97589e-11
1.35655e-11 -7.99622e-11 3.53564e-11
-4.51367e-11 -2.31588e-10 1.02148e-10
-1.41171e-10 -2.34587e-10 -2.13794e-10
1.54269e-10 -1.5779e-10 -2.90484e-10
5.94433e-10 -1.15405e-09 -2.78244e-10
-1.52695e-09 -6.40209e-09 -2.32857e-09
1.96921e-10 -1.48711e-10 -6.68275e-10
4.87649e-10 -7.94136e-10 -2.03184e-10
3.17e-10 -5.03505e-10 1.67947e-10
-3.17e-10 -3.14254e-10 1.00035e-10
-5.54409e-12 -2.79179e-10 1.07142e-10
-1.02141e-10 -3.8118e-10 1.07285e-10
-2.02665e-10 -9.77206e-10 1.08334e-10
-2.87186e-10 -5.51041e-10 -6.11741e-11
-7.64152e-13 -6.31084e-10 -1.00479e-10
-1.61621e-10 1.54433e-10 5.15938e-11
-1.36207e-10 4.34897e-10 1.22391e-10
-1.14996e-10 -5.15927e-10 3.33076e-11
2.68995e-11 -2.19531e-10 -9.36795e-11
-1.20896e-10 3.03603e-11 1.17703e-10
1.26361e-10 -2.61068e-10 1.35758e-10
1.17988e-10 -2.10122e-10 6.11932e-11
-1.61089e-11 -1.97244e-10 -3.14218e-11
-1.39899e-10 -2.44175e-10 -1.64772e-10
-6.05285e-11 -4.77546e-10 -2.45282e-10
3.79852e-10 -2.37148e-10 -6.34217e-10
4.51796e-10 -1.36503e-09 -3.68154e-10
3.1525e-10 -1.02412e-09 -7.22506e-10
2.26692e-10 -1.30787e-09 -4.8169e-10
3.17e-10 -8.38313e-10 9.90318e-11
-3.17e-10 7.33579e-10 -8.85225e-11
-1.38869e-10 7.35157e-10 -1.9346e-10
-1.83893e-10 3.56517e-10 -2.71731e-10
-2.48476e-10 3.99652e-10 1.08979e-10
-5.50802e-10 8.30015e-10 -1.24306e-10
-1.3159e-10 1.50008e-10 -6.512e-11
-1.7105e-10 2.14425e-10 3.10551e-10
4.10067e-10 2.38426e-09 2.19689e-10
-4.28623e-11 2.41092e-09 -5.08259e-11
-3.59067e-10 1.27284e-09 -3.07609e-10
1.27203e-10 7.15215e-10 -4.90398e-10
1.06453e-10 3.57415e-10 -2.81686e-11
-1.12916e-10 3.72451e-10 -5.35249e-11
-5.15784e-11 4.55083e-10 1.82415e-10
-2.01693e-10 1.74695e-10 1.61547e-10
-4.15575e-11 3.39077e-10 3.86299e-10
-1.17161e-10 -3.19217e-10 3.68303e-10
1.15895e-10 -5.02375e-10 4.09021e-11
5.78823e-10 -6.61657e-10 8.00586e-11
5.13631e-10 -7.42883e-10 -1.03033e-10
3.17e-10 -4.91105e-10 -2.63109e-10
-3.17e-10 -2.10027e-10 -3.07411e-10
3.31879e-10 -1.30853e-09 8.73287e-10
-4.73716e-10 9.56008e-10 1.11701e-10
4.49769e-11 -1.41507e-09 1.41665e-10
-3.39218e-10 -7.5248e-10 -9.5867e-11
-2.36407e-10 -5.3171e-11 -3.15064e-10
-1.26188e-10 -6.57931e-10 -1.15764e-09
-4.64658e-10 -1.2785e-09 -2.01124e-09
1.38517e-10 -9.68136e-09 -2.27313e-10
-2.28544e-10 -3.54342e-09 -4.17082e-10
1.98069e-10 -1.57023e-09 -1.57914e-10
1.00085e-09 -2.68992e-09 -4.33098e-10
4.23267e-10 -5.94801e-10 6.81511e-10
3.11375e-10 -1.47113e-09 6.10115e-11
1.56327e-10 -1.19424e-09 -3.41094e-10
-1.15955e-10 -1.24304e-09 1.31384e-10
-4.74612e-10 -1.84633e-09 5.12641e-10
1.76183e-10 -2.32091e-09 -6.51812e-10
5.92365e-10 -8.87353e-10 -2.40936e-10
3.18944e-10 -6.07323e-10 -2.97471e-10
3.17e-10 -1.15117e-09 -4.32736e-10
-3.17e-10 3.65071e-09 4.22357e-10
-1.13045e-09 3.0276e-09 -4.72197e-10
4.32138e-10 4.64935e-10 -1.2035e-11
3.95944e-10 2.78885e-09 -1.30135e-09
-1.36812e-10 6.307e-10 -6.37269e-10
-5.37605e-10 1.03228e-09 -1.81869e-09
-1.68764e-10 3.54363e-09 -1.30501e-09
-7.36059e-10 2.00183e-09 -7.15137e-10
5.44197e-10 6.96838e-09 -2.08159e-09
1.15284e-09 3.66933e-09 -3.6848e-09
-2.30657e-10 1.4746e-08 -5.85846e-09
3.21707e-09 1.14473e-08 -1.94432e-09
1.80169e-10 -4.08077e-09 -6.33877e-10
9.96815e-10 -3.45981e-09 -5.04837e-10
4.7199e-10 2.28687e-10 -1.1223e-09
-4.4114e-10 5.04504e-09 4.37626e-10
3.91488e-10 1.62638e-08 -6.55086e-10
5.92291e-10 1.69098e-08 -9.09893e-10
5.60321e-10 5.15002e-09 -6.41211e-10
2.66058e-10 -1.7563e-09 -3.50622e-10
3.17e-10 -1.48416e-09 -2.50693e-10
-3.17e-10 0 -1.54075e-10
-3.89281e-10 0 -5.74149e-10
-2.49866e-10 0 -7.91323e-10
1.78074e-10 0 -5.21864e-11
-5.46743e-11 0 1.33409e-11
-1.91317e-10 0 -4.54187e-11
-1.45373e-10 0 -7.80122e-12
-8.07747e-11 0 -2.70735e-11
-4.63737e-11 0 -4.42558e-11
2.33784e-11 0 -1.78103e-12
2.67746e-11 0 -8.69999e-11
-5.33927e-12 0 8.59266e-11
-3.25222e-11 0 -8.80178e-11
-9.49037e-11 0 1.12591e-10
-7.26006e-11 0 1.84211e-10
-2.53962e-11 0 4.3774e-10
3.8137e-10 0 -3.72317e-11
2.12284e-10 0 -1.63039e-10
3.51893e-10 0 -2.49965e-10
1.05417e-09 0 6.09787e-11
3.17e-10 0 1.59923e-10
-3.17e-10 1.034e-10 -5.15459e-10
-2.30339e-10 -1.55365e-10 -1.54655e-10
-1.00833e-10 6.11903e-11 -3.20185e-10
-1.63302e-10 -1.05375e-10 1.73419e-10
-1.39998e-10 -2.10667e-11 1.45001e-11
-1.3002e-10 -3.40946e-11 -4.53036e-11
-1.00998e-11 -4.82339e-11 -1.94596e-11
-8.28173e-12 -1.43805e-10 -1.38661e-11
-4.04878e-11 -3.59146e-11 -1.16693e-10
-2.07223e-11 -1.21826e-10 -1.10475e-10
3.09556e-12 -9.51677e-11 -1.45237e-11
5.22422e-11 -9.98404e-11 -3.01069e-11
1.74844e-11 -9.74843e-11 -4.63584e-11
-2.74287e-11 -2.11919e-11 -2.24428e-11
-1.12954e-10 -1.91501e-10 1.43769e-10
-3.15243e-10 -8.79141e-10 4.54289e-10
2.60598e-10 -7.39568e-10 1.82409e-10
1.09296e-10 -5.84387e-10 -1.71562e-10
4.71639e-11 -8.21279e-10 2.18743e-10
4.6172e-10 -8.84139e-10 -1.55652e-10
3.17e-10 -6.57755e-10 -6.05307e-10
-3.17e-10 -3.43999e-10 2.75063e-10
-3.89237e-11 -3.6714e-10 2.30911e-10
-1.33783e-10 -1.91883e-10 4.73038e-11
-1.4579e-10 -1.56534e-10 1.85313e-10
-2.28563e-10 -3.60383e-10 -2.47956e-12
-1.99243e-10 -2.47532e-10 -1.19877e-10
1.15926e-10 2.63529e-11 1.46875e-11
-7.88321e-11 1.16698e-09 3.99208e-11
-2.40282e-10 1.58283e-10 -1.67771e-10
-9.16987e-11 -2.1977e-11 -1.3039e-10
2.56273e-11 -1.24989e-10 1.10092e-11
1.43239e-10 3.05686e-11 -7.92271e-11
5.62027e-11 -1.81621e-10 -4.99087e-11
-4.87018e-11 -1.53484e-10 -4.76072e-11
9.53966e-11 -1.76035e-10 -9.41418e-11
-7.16623e-11 -9.24106e-10 -4.55085e-10
-1.09723e-10 -1.0994e-09 -8.49506e-12
5.13482e-10 -1.16137e-09 9.5476e-11
4.15606e-10 -1.46381e-09 -3.72239e-10
2.3984e-10 -1.28169e-09 1.02495e-10
3.17e-10 -5.84844e-10 -3.55476e-10
-3.17e-10 1.68054e-10 -4.37629e-12
-3.35344e-10 2.46584e-10 -3.13095e-10
-9.03832e-11 4.92609e-10 -2.06885e-10
-3.77317e-10 3.01905e-10 -2.20365e-10
-4.40363e-10 4.27583e-10 7.10292e-11
1.74048e-10 1.00156e-09 3.27552e-11
3.56848e-10 5.86908e-10 9.90351e-11
1.41727e-10 4.13591e-09 2.38273e-10
-2.59088e-10 2.77557e-09 -3.09969e-10
-4.59496e-10 1.21884e-09 7.97979e-11
2.80587e-10 1.51557e-09 2.26135e-10
-1.09832e-10 5.98238e-10 -2.66054e-10
-7.46232e-11 2.5153e-10 -3.81513e-10
1.08254e-10 2.54071e-10 -1.75174e-10
1.47677e-10 -7.15482e-10 -4.12202e-11
1.80179e-10 1.14952e-09 2.40242e-10
-1.71465e-10 2.01319e-10 -1.23919e-10
-1.67044e-11 -4.98879e-10 5.30835e-10
5.14479e-10 -7.90366e-10 -1.80245e-10
5.92639e-10 -7.7361e-10 -1.81962e-10
3.17e-10 -8.73121e-10 -7.85926e-10
-3.17e-10 -8.50199e-10 2.72196e-10
-4.3158e-10 1.888e-10 -3.42636e-10
-1.18742e-10 -3.64724e-10 -2.24227e-10
-4.12468e-10 -1.99466e-09 -2.42148e-10
-3.9982e-10 -1.94322e-09 -4.26737e-10
2.8097e-10 -5.05218e-10 8.80763e-10
-2.34489e-09 -3.85524e-09 4.07572e-10
-3.90078e-10 -1.44798e-08 -1.03331e-09
8.71535e-10 -5.15638e-09 -6.14701e-10
-2.52569e-10 -8.34869e-09 7.15221e-10
3.74886e-10 -1.18275e-09 2.10288e-09
2.69691e-10 -1.57236e-09 1.41597e-09
-4.80779e-11 -9.01114e-10 -2.53859e-10
2.14042e-10 -1.53835e-09 -5.10505e-10
6.2913e-11 -1.42609e-09 -3.49138e-10
2.90496e-10 -4.16923e-09 -4.4457e-10
-1.64874e-09 -1.4876e-09 1.91815e-10
6.00532e-10 -1.88869e-09 9.60104e-11
4.35521e-10 -1.44773e-09 -3.87729e-10
2.86639e-10 -1.06905e-09 -6.2238e-10
3.17e-10 -1.0406e-09 -6.00228e-10
-3.17e-10 -4.19967e-10 2.31962e-10
-3.04286e-10 6.41384e-10 7.6106e-10
-2.4941e-10 5.10203e-10 3.09027e-10
-1.18646e-10 1.81106e-09 8.21217e-10
2.57279e-10 3.26515e-09 -3.16308e-09
-2.15299e-10 1.68212e-10 7.61292e-10
-6.92557e-10 1.60202e-09 7.89323e-10
-3.52499e-10 2.72351e-08 -1.34969e-09
1.02552e-09 4.73943e-09 1.86086e-09
-2.54633e-09 4.93206e-09 2.35899e-09
4.0825e-09 1.40806e-09 2.89653e-09
1.33282e-09 1.63824e-09 -4.93517e-10
9.62425e-11 2.34481e-09 -5.37895e-10
1.14811e-09 4.2798e-09 -6.01696e-10
9.53694e-10 -4.06797e-09 -5.63477e-10
-4.41282e-11 1.85737e-09 2.62997e-10
-9.32085e-10 1.75094e-09 -2.69912e-10
1.90149e-09 1.24373e-08 -7.54538e-10
2.57776e-10 -2.53885e-09 -1.09015e-09
3.19375e-11 -1.15017e-09 -3.783e-10
3.17e-10 -9.6255e-10 -5.76498e-10
-3.17e-10 0 2.85779e-09
-3.19827e-09 0 6.31898e-10
2.29585e-10 0 4.21423e-10
-7.30276e-10 0 1.52238e-10
-8.01091e-11 0 3.97543e-11
-1.77451e-10 0 2.53828e-11
-2.10188e-10 0 -2.62463e-12
-1.52084e-10 0 -4.49512e-11
-2.58839e-11 0 9.91637e-11
1.88984e-11 0 -1.66699e-10
1.12054e-11 0 -2.0774e-10
-3.32934e-11 0 -1.39488e-10
1.93009e-11 0 -1.2443e-10
7.7345e-11 0 -2.08999e-10
1.20423e-10 0 -3.0673e-10
7.07607e-11 0 -2.62126e-11
1.23685e-10 0 1.40789e-10
1.04601e-10 0 -2.03477e-10
1.45739e-10 0 -3.38572e-10
3.25028e-10 0 -3.64122e-10
3.17e-10 0 -5.52302e-10
-3.17e-10 -6.843e-09 4.60026e-10
-1.36959e-09 -1.80338e-09 5.23908e-10
-2.65013e-10 9.68368e-11 -5.30181e-10
-1.88363e-10 -2.61386e-10 1.17903e-10
-1.16338e-10 -5.23882e-11 -6.68819e-12
-8.478e-11 -1.00198e-10 2.83597e-11
-7.08838e-11 -3.59072e-11 -2.35277e-11
-1.50484e-11 -6.95884e-11 -2.54113e-11
-3.26992e-11 -4.30595e-11 -8.8799e-11
1.93773e-11 -3.05239e-10 -1.00915e-10
3.66292e-11 -1.05534e-10 -1.88917e-10
2.83167e-11 -8.80864e-11 -2.09119e-10
4.24577e-11 1.88457e-11 -2.12615e-10
4.80529e-11 -4.53738e-11 -2.17142e-10
8.15987e-11 -2.39675e-10 -3.75454e-10
8.42245e-11 -7.22139e-11 -2.25115e-10
1.6794e-10 -1.04176e-10 -3.96855e-11
3.49865e-10 -2.97989e-10 -4.86138e-10
4.05481e-10 -4.32051e-10 -5.77318e-10
3.16587e-10 -3.12609e-10 -6.34576e-10
3.17e-10 -3.45799e-10 -6.54288e-10
-3.17e-10 -5.73273e-10 2.44375e-10
-1.9135e-10 -6.21519e-10 1.7465e-10
-2.82614e-10 -3.45583e-10 1.11429e-10
-2.77774e-10 1.72541e-11 5.50761e-11
-2.54044e-10 -2.05036e-10 -1.09046e-10
-2.1453e-10 -2.97733e-10 -1.00084e-10
1.09677e-10 5.93771e-11 -4.55472e-11
-1.15696e-10 4.36619e-10 -6.12415e-11
-1.65032e-10 -2.44209e-10 -1.86483e-10
4.98299e-11 -4.01161e-10 -2.33498e-10
1.12179e-10 -1.31771e-10 -3.02274e-10
1.2675e-10 -3.26113e-10 -2.89714e-10
3.30205e-11 -1.59859e-10 -2.48579e-10
7.16426e-11 -7.74205e-11 -1.45785e-10
4.78623e-11 -4.61642e-10 -2.86836e-10
1.03445e-10 -2.36422e-10 -3.17006e-10
6.62928e-11 -7.407e-10 -4.51756e-10
3.93055e-10 -6.99087e-10 -3.44891e-10
5.0884e-10 -1.10866e-09 -7.33572e-10
5.68366e-10 -6.52775e-10 -5.67273e-10
3.17e-10 -5.62303e-10 -8.16048e-10
-3.17e-10 -3.6567e-11 2.88864e-10
-1.32693e-10 -2.14002e-10 1.31275e-10
-8.07806e-11 -4.80176e-11 7.81578e-11
-2.45746e-10 1.55126e-10 9.21866e-11
-3.6603e-10 3.29179e-10 -1.95222e-10
7.56727e-11 5.66449e-10 -2.03843e-10
3.4046e-10 8.73895e-10 -2.23861e-10
-9.52467e-11 3.70979e-09 -4.09158e-10
-4.272e-10 1.69641e-09 -6.23793e-10
1.07314e-10 1.39906e-09 -3.28602e-10
-6.78931e-11 1.83737e-09 -2.72937e-10
-4.28709e-10 4.23739e-10 -5.2653e-10
1.74078e-10 -2.29673e-10 -4.27824e-10
2.26396e-10 1.05659e-10 -4.5403e-10
1.31757e-10 -3.93624e-10 -4.22166e-10
1.60038e-10 -6.42102e-10 -3.16676e-10
1.72598e-10 8.57228e-10 -9.74809e-11
7.20729e-11 1.04156e-09 -4.07013e-10
-6.56101e-11 -1.97034e-11 -3.02138e-10
2.14542e-10 -1.37338e-10 -3.05938e-10
3.17e-10 -5.30468e-10 -1.40382e-10
-3.17e-10 -1.19006e-10 -1.32749e-10
-1.72092e-10 -2.37817e-10 -3.79093e-10
-3.756e-10 -3.20222e-10 7.8511e-11
-5.71077e-10 -3.88295e-10 1.72109e-10
-4.73339e-10 -1.15974e-09 1.97517e-10
8.22816e-10 -4.73469e-10 -1.9375e-10
-3.61686e-09 -1.51438e-09 -3.79369e-10
4.84971e-10 -4.96762e-09 4.55389e-10
1.76244e-09 -7.69361e-09 -5.09005e-10
2.14716e-10 -2.05912e-09 -1.33746e-09
-1.54202e-10 -4.65543e-09 -8.65432e-10
-1.26736e-10 -7.78756e-10 -6.12697e-10
-9.74081e-10 -1.20367e-09 -1.04716e-09
1.03823e-09 -6.88826e-09 -4.28845e-10
4.10277e-10 -3.23702e-10 -6.93372e-10
7.05783e-10 -2.46134e-10 5.08201e-11
2.19064e-10 -2.68855e-09 -1.45884e-10
5.19154e-10 -5.24821e-09 -1.80129e-10
2.10212e-10 -1.75072e-09 -3.53026e-10
7.50164e-10 -1.34074e-09 -1.13416e-10
3.17e-10 -7.03384e-10 -1.98391e-10
-3.17e-10 3.9905e-10 -4.15838e-10
-4.10663e-11 2.16553e-10 -1.2364e-10
-3.9619e-10 1.91398e-10 -1.27789e-09
-8.26267e-10 1.54732e-09 -1.87861e-09
1.80901e-10 -4.41848e-10 2.00937e-10
-5.54833e-10 2.0656e-09 -3.94437e-10
-9.34809e-10 3.05319e-09 3.43578e-10
-4.76225e-10 2.1999e-08 7.14534e-11
2.81294e-09 1.34259e-08 -2.3115e-09
2.94058e-10 3.76722e-09 -1.56162e-09
6.0393e-10 1.72765e-09 -3.90266e-10
8.93372e-10 1.08133e-09 -5.2835e-10
-5.81156e-11 1.95962e-09 -3.46873e-10
1.04819e-09 1.8481e-09 -5.79274e-10
6.13441e-10 -1.9955e-09 -3.18494e-10
-3.32006e-10 4.28522e-10 -8.72343e-10
1.03455e-09 5.02797e-09 -1.66581e-09
1.63999e-09 5.66702e-09 -1.40888e-09
7.11868e-10 -1.96921e-09 -1.0148e-09
6.43054e-10 -1.00428e-09 -6.13689e-10
3.17e-10 -7.83848e-10 -8.0938e-10
-3.17e-10 0 -8.34774e-10
-3.27878e-09 0 -4.08246e-09
-1.75707e-10 0 -1.93244e-09
-5.8194e-10 0 -6.40089e-11
-6.58841e-11 0 1.0218e-10
-1.0892e-10 0 6.99491e-11
-1.77763e-10 0 7.24408e-11
2.68719e-12 0 4.57138e-11
-3.25751e-11 0 6.22554e-11
-5.2396e-11 0 -1.18604e-10
6.45362e-11 0 -8.05889e-11
-1.65237e-11 0 -1.22679e-10
1.03502e-11 0 -2.01761e-10
1.42372e-11 0 -1.80724e-10
7.45059e-11 0 -1.95191e-10
3.78227e-11 0 -2.7507e-10
1.00909e-10 0 -3.30625e-10
3.04242e-10 0 -2.4116e-10
3.85911e-10 0 -1.34141e-10
2.20025e-10 0 -2.49909e-10
3.17e-10 0 -3.44144e-10
-3.17e-10 -1.12833e-09 -6.41441e-10
-1.44338e-09 -1.8909e-09 -7.74187e-10
-2.49644e-10 2.22184e-10 -8.71947e-11
-2.89733e-10 -2.43519e-10 -3.05803e-10
-1.58518e-10 -3.40838e-10 -7.70197e-11
-2.82595e-10 -4.12142e-11 -1.17014e-10
-8.40917e-11 -3.6886e-11 -1.3159e-11
-1.6286e-10 -9.32543e-11 -2.12775e-11
-5.39611e-11 -1.37377e-10 -1.79454e-11
-9.82481e-11 -1.05284e-10 -5.46854e-11
6.52324e-11 -5.30297e-10 -4.39195e-11
4.24288e-11 -4.92657e-11 -8.17583e-11
5.23677e-11 -2.65489e-11 -1.18015e-10
5.24859e-11 -1.94795e-11 -7.7952e-11
1.15132e-10 -1.34531e-10 -1.89482e-10
8.48827e-11 1.14374e-11 -2.52637e-10
1.31714e-10 -4.18484e-10 -2.98774e-10
2.52624e-10 -4.64133e-10 -1.9949e-10
2.20634e-10 -4.68313e-10 -2.20135e-10
2.86218e-10 -3.02291e-10 -2.76153e-10
3.17e-10 -2.42086e-10 -3.13947e-10
-3.17e-10 -5.36039e-10 -2.05922e-10
-2.459e-10 -5.59255e-10 -3.47232e-11
-3.38055e-10 -3.55961e-10 -8.49892e-11
-3.27587e-10 8.49759e-11 -8.37332e-12
-3.27941e-10 -1.17648e-10 -1.03045e-10
-1.7198e-10 -2.5554e-10 -4.46828e-11
-2.52633e-10 -4.12554e-10 -2.61527e-11
-5.5737e-11 -1.75683e-10 -1.53998e-10
-8.72682e-11 -1.47159e-10 -2.84117e-10
2.57243e-10 -7.05258e-10 -1.01752e-10
1.30416e-11 -5.90066e-10 -9.49679e-11
1.6893e-10 -4.11398e-10 -1.97107e-10
1.2849e-10 -9.28839e-11 -2.12285e-10
4.36752e-11 -3.09065e-11 -1.41913e-10
1.15942e-10 -2.59648e-10 -1.437e-10
2.34041e-10 -2.92555e-10 -1.22668e-10
2.20462e-10 -8.33749e-11 -1.98262e-10
1.1578e-10 -3.02777e-10 -1.58874e-10
3.47385e-10 -1.70647e-10 -1.31272e-10
5.7503e-10 -2.16222e-10 -1.63569e-10
3.17e-10 -2.31965e-10 -4.23976e-10
-3.17e-10 8.06293e-10 4.92062e-11
-3.92043e-10 -1.10652e-10 -2.23384e-10
-4.08081e-10 -3.04547e-10 -1.96869e-10
-4.6988e-10 -1.66828e-10 -1.66845e-10
-4.62166e-10 2.89842e-10 -2.21975e-10
1.81769e-10 7.8251e-10 -3.26878e-11
3.3878e-10 1.90241e-09 9.37599e-11
-2.40403e-10 1.05547e-09 -1.66453e-10
-4.00106e-10 1.53709e-09 -2.36738e-10
-1.62654e-11 1.60197e-09 -1.77846e-10
-3.11872e-10 9.7857e-10 -2.05845e-10
-2.48704e-10 5.87206e-10 1.3355e-10
-1.90169e-10 3.13977e-11 -4.30987e-10
1.29312e-10 2.45927e-10 -4.71086e-10
1.01324e-10 5.48809e-10 7.67775e-11
2.70082e-10 3.43904e-10 -1.17855e-10
4.37805e-10 2.67816e-10 -1.30972e-10
6.19072e-11 9.01527e-10 -7.26827e-11
-1.44404e-10 -1.95311e-10 -1.66962e-10
-2.77904e-11 -1.34914e-10 1.46728e-10
3.17e-10 -1.80319e-10 1.04849e-10
-3.17e-10 -7.28256e-10 -1.10884e-10
-1.65183e-10 -6.27213e-10 -8.74326e-11
-2.78619e-10 1.36861e-10 4.75627e-10
-2.30713e-10 -2.50109e-10 6.42276e-10
-1.05456e-10 -9.71115e-10 -1.37697e-10
-9.20137e-10 -6.62598e-10 -6.52214e-10
3.25446e-10 -8.89941e-09 -7.56169e-10
8.92819e-10 -1.12414e-08 7.86507e-10
2.7538e-10 -6.96794e-09 6.33052e-10
-8.20632e-11 -7.64277e-09 -2.45598e-10
-2.87275e-10 -1.30595e-09 -5.47128e-10
-1.40833e-09 -6.15284e-09 4.90271e-10
1.01344e-09 -1.08444e-08 3.12398e-10
4.35231e-10 -3.2823e-09 8.34321e-10
1.61955e-10 -2.61326e-10 -6.63296e-10
-3.8241e-10 -2.37156e-09 -7.58501e-10
4.74456e-10 -3.9687e-09 -1.80139e-09
-2.82963e-10 -3.23999e-09 -2.58162e-10
-4.74706e-11 -2.41392e-09 -9.90572e-10
4.25965e-10 -1.15521e-09 -2.95223e-10
3.17e-10 -7.31353e-10 -1.87201e-10
-3.17e-10 4.53051e-10 2.42852e-10
-1.87504e-10 7.59059e-11 1.51499e-10
-5.94595e-10 -1.63885e-10 3.73439e-10
1.67467e-10 -3.74522e-10 3.69828e-10
-6.42047e-10 8.71779e-10 -6.13813e-10
-8.2186e-10 2.39654e-09 -3.15839e-10
-9.20508e-10 2.69163e-08 -1.18607e-09
3.37344e-10 8.22885e-09 -5.72514e-10
-6.22555e-10 2.3653e-08 -5.22311e-10
8.05426e-10 1.81173e-08 -9.55454e-10
8.3118e-10 7.56483e-09 -1.24424e-09
-2.58647e-09 1.3497e-08 2.18595e-09
4.86963e-10 2.41252e-08 -1.13572e-09
6.82235e-10 1.45597e-09 3.17113e-09
4.73507e-10 1.68193e-10 -1.57956e-09
-1.93164e-09 8.00368e-10 -1.21878e-09
4.0962e-09 9.51249e-09 -1.33716e-09
1.08835e-09 3.45254e-09 -2.27686e-09
-2.06588e-09 6.96595e-09 -6.91791e-10
1.01445e-09 1.22291e-09 -1.46076e-09
3.17e-10 -1.01601e-10 -1.39414e-09
-3.17e-10 0 6.41414e-10
-5.97527e-10 0 1.26315e-09
-1.44932e-10 0 7.97397e-10
-3.64535e-11 0 1.27649e-10
-7.63699e-11 0 5.98947e-11
-1.82482e-10 0 3.34024e-11
-1.79177e-10 0 9.94633e-12
2.60336e-11 0 5.69939e-11
-1.67131e-11 0 -2.57687e-11
-8.83965e-11 0 -1.34147e-10
7.24413e-11 0 -1.88165e-10
-2.58424e-11 0 -2.30809e-10
-1.57713e-11 0 -1.88479e-10
-3.29108e-11 0 -1.59136e-10
-4.25373e-14 0 -1.50802e-10
2.20539e-11 0 -1.47579e-10
1.09514e-10 0 -1.44892e-10
8.53075e-11 0 -1.3384e-10
1.78004e-10 0 -2.07022e-10
2.29387e-10 0 -2.15293e-10
3.17e-10 0 -1.79368e-10
-3.17e-10 9.60493e-11 6.44083e-10
-3.06999e-10 -1.81869e-10 9.84732e-11
-1.37381e-10 4.62901e-11 3.77386e-11
6.53793e-11 -2.19437e-10 -2.35176e-11
-1.98026e-10 -1.51665e-10 1.20071e-10
-3.05953e-10 -9.99284e-11 4.31962e-11
9.8028e-12 -2.2058e-10 -7.98938e-11
7.66546e-12 -1.77397e-10 -1.17909e-10
-2.48089e-11 -1.75758e-10 -2.62256e-11
-6.05411e-11 -8.3885e-11 -4.94731e-11
-3.06858e-11 -1.758e-10 -8.09127e-11
6.18799e-11 -3.03915e-10 -1.83203e-10
1.31811e-11 -2.01483e-10 -2.26164e-10
2.70543e-11 9.2763e-11 -2.56009e-10
6.99731e-11 -2.0109e-10 -1.76661e-10
1.09811e-10 -1.65011e-10 -7.13533e-11
1.06174e-10 -1.53308e-10 -5.41032e-11
3.11974e-10 -3.87778e-10 -2.94709e-11
2.33935e-11 -3.76667e-10 -1.62188e-10
1.44627e-10 -2.76699e-10 -2.06627e-10
3.17e-10 -1.42201e-10 -2.20206e-10
-3.17e-10 -9.05865e-11 -2.14803e-10
-5.23713e-10 4.51901e-11 -1.09716e-10
-3.26246e-10 5.90251e-11 -7.12843e-11
-3.12546e-10 1.25276e-10 -1.51749e-10
-3.39298e-10 -5.60631e-10 -2.11202e-10
-1.85755e-10 -4.73908e-10 -1.10572e-10
-4.44919e-11 -2.72112e-10 -1.62795e-10
-1.44953e-10 -5.49016e-10 -5.27991e-11
-9.23658e-11 -4.69321e-10 -7.00289e-11
4.01496e-11 -3.5956e-10 -9.01706e-11
3.83113e-11 -1.97856e-10 -1.78297e-11
7.5154e-11 -1.98662e-10 1.83149e-11
9.46862e-11 4.99372e-11 -2.64025e-10
8.98258e-11 -1.52021e-10 -3.71523e-10
8.4845e-11 -6.25802e-10 -3.37097e-10
2.85204e-10 -4.39669e-10 -4.66082e-11
2.23349e-10 -5.52566e-10 -7.77724e-11
1.42608e-11 4.30536e-10 -2.24759e-10
1.90944e-10 -4.92093e-10 -1.19828e-10
2.69365e-10 5.403e-11 -2.67848e-10
3.17e-10 -3.39633e-10 -2.27606e-10
-3.17e-10 4.46067e-10 -3.27033e-10
-3.55542e-10 -1.29351e-10 -3.97586e-10
-4.95938e-10 -2.78836e-10 1.65653e-10
-3.10605e-10 8.17594e-10 7.30572e-10
-3.92207e-10 2.51585e-10 2.3898e-10
2.64743e-10 2.11923e-09 6.89863e-10
-6.1466e-10 2.43172e-09 -1.89517e-10
-8.31847e-10 2.52598e-09 -4.62222e-10
-1.38951e-10 2.09179e-09 7.83973e-12
6.69043e-11 7.32655e-10 8.40727e-11
1.31819e-11 1.02622e-09 -1.35581e-10
-2.94045e-10 1.71066e-09 -1.89039e-10
-1.23178e-10 1.95799e-10 -8.98941e-11
2.47563e-10 3.91852e-10 1.2317e-10
1.8087e-10 8.39703e-10 2.18217e-10
-7.82372e-11 1.11097e-09 3.78349e-11
4.67854e-10 1.79226e-09 1.16052e-10
4.18521e-10 1.58369e-09 -7.44572e-11
2.28888e-10 3.87498e-10 4.21325e-11
4.82645e-10 6.64729e-10 4.27604e-10
3.17e-10 5.06251e-10 4.10318e-10
-3.17e-10 -9.35483e-11 -4.65125e-10
-6.53558e-10 -1.32267e-09 -2.00966e-11
6.58215e-10 -2.99713e-09 -3.57947e-10
8.70495e-11 -1.08405e-09 -1.68481e-09
-7.60841e-10 -9.11806e-10 -1.33506e-09
-5.05719e-10 -1.29338e-08 4.54389e-10
7.73139e-10 -5.07025e-09 1.25781e-09
3.88651e-10 -7.96131e-09 3.20997e-10
3.9058e-10 -7.09399e-09 5.10799e-10
3.6045e-10 -2.96509e-09 1.08336e-10
-5.87317e-10 -2.80106e-10 2.34581e-10
-3.50234e-10 -3.68156e-09 -9.91396e-11
2.54026e-10 -5.6e-10 2.64867e-10
3.40675e-10 -4.79269e-10 3.7986e-11
-2.25137e-09 -3.56376e-09 -1.74946e-09
-2.5361e-10 -1.0384e-08 -9.60986e-10
4.28876e-10 -1.44371e-08 -8.42886e-10
7.41338e-10 -4.22068e-09 -4.91512e-10
4.05197e-10 -1.1822e-08 1.73376e-10
5.25491e-10 -2.65424e-09 6.82191e-10
3.17e-10 -1.05119e-09 -4.5241e-10
-3.17e-10 8.19219e-10 6.44424e-10
-3.27012e-09 5.87518e-09 -1.07295e-09
1.2168e-09 2.02838e-09 -2.25192e-09
-4.02292e-11 1.6414e-09 -6.2157e-10
-4.71576e-10 3.96351e-09 -5.8701e-10
-7.8635e-10 2.5001e-08 -6.8606e-10
1.35812e-10 2.00607e-08 3.42761e-10
-3.56054e-10 2.18434e-08 2.33304e-10
-5.70402e-10 6.37746e-09 -5.51607e-10
1.36564e-09 4.08669e-09 6.20666e-10
4.42273e-11 1.89807e-09 3.90855e-10
-1.55708e-09 2.39226e-09 -2.01654e-09